unknown system                          
           1
     3.866975    0.000000    0.000000
     1.933487    3.348898    0.000000
     1.933487    1.116299    3.157372
   Si
   2
Direct configuration=     1
   0.25000000  0.25000000  0.25000000
   0.00000000  0.00000000  0.00000000
