unknown system                          
   1.0000000000000000     
     3.866975    0.000000    0.000000
     1.933487    3.348898    0.000000
     1.933487    1.116299    3.157372
   Si
     2
Direct
  0.250000  0.250000  0.250000
  0.000000  0.000000  0.000000

   32   32   32
 -7.7816     -5.9919     -1.2191      5.0269      10.943      15.128      16.997      16.811      15.380      13.580    
  11.823      10.255      8.9557      7.9492      7.2369      6.8132      6.6725      6.8132      7.2370      7.9492    
  8.9558      10.255      11.823      13.580      15.380      16.811      16.997      15.128      10.943      5.0270    
 -1.2191     -5.9919     -5.9919     -2.4920      3.3446      9.7061      14.887      17.879      18.582      17.611    
  15.895      14.082      12.390      10.926      9.7325      8.8295      8.2228      7.9182      7.9181      8.2227    
  8.8295      9.7324      10.926      12.390      14.082      15.895      17.611      18.583      17.878      14.887    
  9.7056      3.3444     -2.4920     -5.9925     -1.2191      3.3446      9.2303      14.675      18.373      19.853    
  19.451      17.980      16.224      14.506      12.954      11.628      10.563      9.7766      9.2941      9.1302    
  9.2941      9.7767      10.563      11.629      12.954      14.506      16.225      17.981      19.451      19.853    
  18.373      14.675      9.2299      3.3444     -1.2181     -2.9404      5.0269      9.7061      14.675      18.531    
  20.517      20.665      19.574      18.013      16.394      14.862      13.495      12.328      11.395      10.736    
  10.394      10.394      10.736      11.394      12.327      13.495      14.862      16.394      18.013      19.574    
  20.665      20.518      18.530      14.675      9.7059      5.0268      2.1804      2.1804      10.943      14.887    
  18.373      20.517      21.090      20.440      19.209      17.823      16.442      15.148      13.975      12.958    
  12.154      11.632      11.451      11.633      12.154      12.958      13.974      15.148      16.442      17.823    
  19.209      20.440      21.089      20.517      18.374      14.886      10.944      7.8111      6.6177      7.8108    
  15.128      17.879      19.853      20.665      20.440      19.630      18.596      17.491      16.394      15.329    
  14.324      13.439      12.765      12.395      12.395      12.764      13.440      14.326      15.329      16.393    
  17.491      18.596      19.630      20.440      20.665      19.853      17.879      15.127      12.435      10.766    
  10.766      12.435      16.997      18.582      19.451      19.574      19.209      18.596      17.859      17.065    
  16.224      15.346      14.475      13.701      13.153      12.954      13.153      13.700      14.474      15.347    
  16.225      17.065      17.859      18.596      19.209      19.574      19.452      18.581      16.997      15.106    
  13.564      12.968      13.563      15.105      16.811      17.611      17.980      18.013      17.823      17.491    
  17.065      16.538      15.895      15.148      14.360      13.672      13.264      13.264      13.673      14.360    
  15.146      15.895      16.539      17.064      17.491      17.823      18.014      17.980      17.612      16.811    
  15.681      14.554      13.847      13.847      14.554      15.682      15.380      15.895      16.224      16.394    
  16.442      16.394      16.224      15.895      15.381      14.697      13.958      13.371      13.147      13.372    
  13.958      14.698      15.379      15.895      16.225      16.393      16.443      16.393      16.225      15.895    
  15.379      14.698      13.959      13.372      13.147      13.372      13.958      14.697      13.580      14.082    
  14.506      14.862      15.148      15.329      15.346      15.148      14.697      14.046      13.382      12.960    
  12.960      13.382      14.047      14.698      15.146      15.347      15.329      15.147      14.862      14.506    
  14.082      13.581      13.018      12.451      11.977      11.702      11.702      11.977      12.453      13.018    
  11.823      12.390      12.954      13.495      13.975      14.324      14.475      14.360      13.958      13.382    
  12.873      12.670      12.873      13.382      13.959      14.360      14.474      14.325      13.974      13.494    
  12.954      12.390      11.822      11.261      10.735      10.291      9.9905      9.8834      9.9903      10.290    
  10.735      11.262      10.255      10.926      11.628      12.328      12.958      13.439      13.701      13.672    
  13.371      12.960      12.670      12.669      12.959      13.371      13.673      13.700      13.440      12.958    
  12.327      11.629      10.925      10.255      9.6403      9.0980      8.6507      8.3284      8.1584      8.1587    
  8.3287      8.6516      9.0978      9.6400      8.9557      9.7325      10.563      11.395      12.154      12.765    
  13.153      13.264      13.147      12.960      12.873      12.959      13.147      13.265      13.153      12.764    
  12.154      11.394      10.563      9.7326      8.9557      8.2626      7.6703      7.1909      6.8362      6.6174    
  6.5431      6.6171      6.8357      7.1906      7.6704      8.2630      7.9492      8.8295      9.7766      10.736    
  11.632      12.395      12.954      13.264      13.372      13.382      13.382      13.371      13.265      12.954    
  12.394      11.633      10.736      9.7770      8.8294      7.9491      7.1719      6.5154      5.9874      5.5902    
  5.3250      5.1923      5.1924      5.3252      5.5904      5.9876      6.5152      7.1717      7.2369      8.2228    
  9.2941      10.394      11.451      12.395      13.153      13.673      13.958      14.047      13.959      13.673    
  13.153      12.394      11.451      10.394      9.2938      8.2229      7.2369      6.3723      5.6459      5.0620    
  4.6171      4.3055      4.1212      4.0603      4.1210      4.3053      4.6169      5.0619      5.6462      6.3724    
  6.8132      7.9182      9.1302      10.394      11.633      12.764      13.700      14.360      14.698      14.698    
  14.360      13.700      12.764      11.633      10.394      9.1305      7.9181      6.8132      5.8513      5.0475    
  4.4020      3.9060      3.5478      3.3161      3.2025      3.2025      3.3163      3.5480      3.9062      4.4021    
  5.0471      5.8511      6.6725      7.9181      9.2941      10.736      12.154      13.440      14.474      15.146    
  15.379      15.146      14.474      13.440      12.154      10.736      9.2938      7.9181      6.6725      5.5948    
  4.6989      3.9815      3.4282      3.0214      2.7439      2.5828      2.5300      2.5829      2.7438      3.0213    
  3.4281      3.9814      4.6993      5.5948      6.8132      8.2227      9.7767      11.394      12.958      14.326    
  15.347      15.895      15.895      15.347      14.325      12.958      11.394      9.7770      8.2229      6.8132    
  5.5948      4.5846      3.7775      3.1546      2.6919      2.3664      2.1596      2.0592      2.0592      2.1596    
  2.3664      2.6919      3.1547      3.7775      4.5844      5.5949      7.2370      8.8295      10.563      12.327    
  13.974      15.329      16.225      16.539      16.225      15.329      13.974      12.327      10.563      8.8294    
  7.2369      5.8513      4.6989      3.7775      3.0656      2.5338      2.1526      1.8974      1.7508      1.7031    
  1.7508      1.8974      2.1525      2.5338      3.0655      3.7775      4.6993      5.8511      7.9492      9.7324    
  11.629      13.495      15.148      16.393      17.065      17.064      16.393      15.147      13.494      11.629    
  9.7326      7.9491      6.3723      5.0475      3.9815      3.1546      2.5338      2.0833      1.7720      1.5764    
  1.4821      1.4821      1.5765      1.7719      2.0834      2.5338      3.1547      3.9813      5.0471      6.3725    
  8.9558      10.926      12.954      14.862      16.442      17.491      17.859      17.491      16.443      14.862    
  12.954      10.925      8.9557      7.1719      5.6459      4.4020      3.4282      2.6919      2.1526      1.7720    
  1.5200      1.3763      1.3296      1.3763      1.5200      1.7720      2.1525      2.6920      3.4281      4.4021    
  5.6463      7.1716      10.255      12.390      14.506      16.394      17.823      18.596      18.596      17.823    
  16.393      14.506      12.390      10.255      8.2626      6.5154      5.0620      3.9060      3.0214      2.3664    
  1.8974      1.5764      1.3763      1.2801      1.2801      1.3763      1.5765      1.8973      2.3664      3.0212    
  3.9062      5.0619      6.5152      8.2629      11.823      14.082      16.225      18.013      19.209      19.630    
  19.209      18.014      16.225      14.082      11.822      9.6403      7.6703      5.9874      4.6171      3.5478    
  2.7439      2.1596      1.7508      1.4821      1.3296      1.2801      1.3296      1.4822      1.7508      2.1597    
  2.7439      3.5480      4.6170      5.9876      7.6705      9.6399      13.580      15.895      17.981      19.574    
  20.440      20.440      19.574      17.980      15.895      13.581      11.261      9.0980      7.1909      5.5902    
  4.3055      3.3161      2.5828      2.0592      1.7031      1.4821      1.3763      1.3763      1.4822      1.7030    
  2.0593      2.5828      3.3162      4.3053      5.5904      7.1905      9.0978      11.262      15.380      17.611    
  19.451      20.665      21.089      20.665      19.452      17.612      15.379      13.018      10.735      8.6507    
  6.8362      5.3250      4.1212      3.2025      2.5300      2.0592      1.7508      1.5765      1.5200      1.5765    
  1.7508      2.0593      2.5300      3.2026      4.1211      5.3253      6.8358      8.6515      10.735      13.018    
  16.811      18.583      19.853      20.518      20.517      19.853      18.581      16.811      14.698      12.451    
  10.291      8.3284      6.6174      5.1923      4.0603      3.2025      2.5829      2.1596      1.8974      1.7719    
  1.7720      1.8973      2.1597      2.5828      3.2026      4.0600      5.1924      6.6171      8.3287      10.290    
  12.452      14.697      16.997      17.878      18.373      18.530      18.374      17.879      16.997      15.681    
  13.959      11.977      9.9905      8.1584      6.5431      5.1924      4.1210      3.3163      2.7438      2.3664    
  2.1525      2.0834      2.1525      2.3664      2.7439      3.3162      4.1211      5.1924      6.5433      8.1585    
  9.9904      11.977      13.958      15.682      15.128      14.887      14.675      14.675      14.886      15.127    
  15.106      14.554      13.372      11.702      9.8834      8.1587      6.6171      5.3252      4.3053      3.5480    
  3.0213      2.6919      2.5338      2.5338      2.6920      3.0212      3.5480      4.3053      5.3253      6.6171    
  8.1585      9.8835      11.702      13.371      14.554      15.106      10.943      9.7056      9.2299      9.7059    
  10.944      12.435      13.564      13.847      13.147      11.702      9.9903      8.3287      6.8357      5.5904    
  4.6169      3.9062      3.4281      3.1547      3.0655      3.1547      3.4281      3.9062      4.6170      5.5904    
  6.8358      8.3287      9.9904      11.702      13.148      13.847      13.564      12.435      5.0270      3.3444    
  3.3444      5.0268      7.8111      10.766      12.968      13.847      13.372      11.977      10.290      8.6516    
  7.1906      5.9876      5.0619      4.4021      3.9814      3.7775      3.7775      3.9813      4.4021      5.0619    
  5.9876      7.1905      8.6515      10.290      11.977      13.371      13.847      12.968      10.766      7.8113    
 -1.2191     -2.4920     -1.2181      2.1804      6.6177      10.766      13.563      14.554      13.958      12.453    
  10.735      9.0978      7.6704      6.5152      5.6462      5.0471      4.6993      4.5844      4.6993      5.0471    
  5.6463      6.5152      7.6705      9.0978      10.735      12.452      13.958      14.554      13.564      10.766    
  6.6181      2.1806     -5.9919     -5.9925     -2.9404      2.1804      7.8108      12.435      15.105      15.682    
  14.697      13.018      11.262      9.6400      8.2630      7.1717      6.3724      5.8511      5.5948      5.5949    
  5.8511      6.3725      7.1716      8.2629      9.6399      11.262      13.018      14.697      15.682      15.106    
  12.435      7.8113      2.1806     -2.9404     -5.9921     -2.4916      3.3450      9.7061      14.887      17.879    
  18.582      17.611      15.895      14.082      12.390      10.926      9.7324      8.8296      8.2228      7.9182    
  7.9181      8.2227      8.8295      9.7324      10.926      12.390      14.082      15.895      17.611      18.583    
  17.879      14.887      9.7058      3.3447     -2.4916     -5.9929     -2.4916      2.3489      8.6076      14.426    
  18.428      20.102      19.787      18.322      16.538      14.789      13.206      11.855      10.766      9.9624    
  9.4685      9.3007      9.4686      9.9626      10.766      11.855      13.206      14.789      16.538      18.322    
  19.787      20.102      18.428      14.427      8.6072      2.3491     -2.4914     -4.3158      3.3450      8.6076    
  14.233      18.669      21.060      21.414      20.362      18.749      17.065      15.469      14.044      12.824    
  11.845      11.152      10.791      10.792      11.152      11.845      12.823      14.044      15.470      17.065    
  18.749      20.362      21.413      21.060      18.669      14.234      8.6075      3.3445     0.15384     0.15367    
  9.7061      14.426      18.669      21.387      22.285      21.727      20.439      18.963      17.491      16.109    
  14.850      13.754      12.882      12.313      12.115      12.313      12.882      13.755      14.850      16.109    
  17.491      18.963      20.439      21.728      22.285      21.388      18.669      14.426      9.7064      5.9846    
  4.5715      5.9856      14.887      18.428      21.060      22.285      22.209      21.359      20.230      19.024    
  17.823      16.651      15.536      14.542      13.775      13.351      13.351      13.774      14.541      15.536    
  16.652      17.823      19.024      20.230      21.359      22.209      22.285      21.060      18.428      14.887    
  11.475      9.3753      9.3754      11.475      17.879      20.102      21.414      21.727      21.359      20.676    
  19.853      18.963      18.013      17.007      15.983      15.050      14.376      14.129      14.377      15.051    
  15.982      17.006      18.014      18.963      19.853      20.677      21.359      21.728      21.414      20.102    
  17.879      15.302      13.226      12.429      13.226      15.302      18.582      19.787      20.362      20.439    
  20.230      19.853      19.364      18.749      17.981      17.047      16.018      15.094      14.539      14.539    
  15.094      16.019      17.047      17.980      18.750      19.364      19.853      20.231      20.439      20.361    
  19.787      18.581      16.926      15.301      14.290      14.290      15.301      16.926      17.611      18.322    
  18.749      18.963      19.024      18.963      18.749      18.323      17.611      16.612      15.506      14.626    
  14.288      14.625      15.506      16.613      17.612      18.321      18.749      18.963      19.024      18.963    
  18.749      18.321      17.612      16.613      15.506      14.625      14.288      14.625      15.506      16.613    
  15.895      16.538      17.065      17.491      17.823      18.013      17.981      17.611      16.811      15.682    
  14.555      13.848      13.847      14.554      15.681      16.812      17.612      17.980      18.014      17.823    
  17.491      17.065      16.539      15.895      15.146      14.360      13.673      13.265      13.264      13.672    
  14.360      15.147      14.082      14.789      15.469      16.109      16.651      17.007      17.047      16.612    
  15.682      14.506      13.521      13.137      13.521      14.506      15.681      16.613      17.047      17.006    
  16.652      16.108      15.470      14.789      14.082      13.360      12.660      12.054      11.636      11.486    
  11.637      12.054      12.659      13.360      12.390      13.206      14.044      14.850      15.536      15.983    
  16.018      15.506      14.555      13.521      12.852      12.852      13.521      14.554      15.506      16.019    
  15.983      15.536      14.851      14.043      13.207      12.390      11.623      10.925      10.335      9.8975    
  9.6637      9.6634      9.8971      10.334      10.926      11.623      10.926      11.855      12.824      13.754    
  14.542      15.050      15.094      14.626      13.848      13.137      12.852      13.137      13.847      14.624    
  15.094      15.050      14.541      13.754      12.823      11.855      10.925      10.078      9.3389      8.7268    
  8.2638      7.9737      7.8749      7.9740      8.2642      8.7263      9.3384      10.078      9.7324      10.766    
  11.845      12.882      13.775      14.376      14.539      14.288      13.847      13.521      13.521      13.847    
  14.287      14.539      14.377      13.774      12.882      11.845      10.766      9.7327      8.7995      7.9976    
  7.3409      6.8394      6.4996      6.3282      6.3280      6.4996      6.8392      7.3414      7.9979      8.7996    
  8.8296      9.9624      11.152      12.313      13.351      14.129      14.539      14.625      14.554      14.506    
  14.554      14.624      14.539      14.129      13.351      12.313      11.152      9.9627      8.8295      7.8102    
  6.9387      6.2273      5.6790      5.2906      5.0596      4.9825      5.0595      5.2905      5.6791      6.2269    
  6.9385      7.8104      8.2228      9.4685      10.791      12.115      13.351      14.377      15.094      15.506    
  15.681      15.681      15.506      15.094      14.377      13.351      12.115      10.791      9.4682      8.2229    
  7.1108      6.1638      5.3921      4.7930      4.3567      4.0731      3.9335      3.9336      4.0731      4.3568    
  4.7930      5.3926      6.1640      7.1107      7.9182      9.3007      10.792      12.313      13.774      15.051    
  16.019      16.613      16.812      16.613      16.019      15.050      13.774      12.313      10.791      9.3010    
  7.9182      6.6949      5.6596      4.8185      4.1634      3.6782      3.3462      3.1529      3.0895      3.1528    
  3.3462      3.6782      4.1634      4.8180      5.6594      6.6951      7.9181      9.4686      11.152      12.882    
  14.541      15.982      17.047      17.612      17.612      17.047      15.983      14.541      12.882      11.152    
  9.4682      7.9182      6.5569      5.4116      4.4848      3.7630      3.2236      2.8430      2.6008      2.4833    
  2.4833      2.6009      2.8430      3.2238      3.7630      4.4852      5.4116      6.5568      8.2227      9.9626    
  11.845      13.755      15.536      17.006      17.980      18.321      17.980      17.006      15.536      13.754    
  11.845      9.9627      8.2229      6.6949      5.4116      4.3754      3.5690      2.9636      2.5287      2.2373    
  2.0702      2.0157      2.0702      2.2373      2.5286      2.9635      3.5690      4.3751      5.4116      6.6951    
  8.8295      10.766      12.823      14.850      16.652      18.014      18.750      18.749      18.014      16.652    
  14.851      12.823      10.766      8.8295      7.1108      5.6596      4.4848      3.5690      2.8791      2.3778    
  2.0315      1.8143      1.7096      1.7096      1.8143      2.0315      2.3779      2.8792      3.5690      4.4853    
  5.6595      7.1107      9.7324      11.855      14.044      16.109      17.823      18.963      19.364      18.963    
  17.823      16.108      14.043      11.855      9.7327      7.8102      6.1638      4.8185      3.7630      2.9636    
  2.3778      1.9648      1.6919      1.5365      1.4860      1.5365      1.6919      1.9648      2.3778      2.9635    
  3.7629      4.8180      6.1640      7.8105      10.926      13.206      15.470      17.491      19.024      19.853    
  19.853      19.024      17.491      15.470      13.207      10.925      8.7995      6.9387      5.3921      4.1634    
  3.2236      2.5287      2.0315      1.6919      1.4804      1.3789      1.3789      1.4804      1.6919      2.0315    
  2.5287      3.2238      4.1634      5.3926      6.9384      8.7996      12.390      14.789      17.065      18.963    
  20.230      20.677      20.231      18.963      17.065      14.789      12.390      10.078      7.9976      6.2273    
  4.7930      3.6782      2.8430      2.2373      1.8143      1.5365      1.3789      1.3278      1.3789      1.5365    
  1.8143      2.2373      2.8429      3.6782      4.7929      6.2270      7.9978      10.078      14.082      16.538    
  18.749      20.439      21.359      21.359      20.439      18.749      16.539      14.082      11.623      9.3389    
  7.3409      5.6790      4.3567      3.3462      2.6008      2.0702      1.7096      1.4860      1.3789      1.3789    
  1.4860      1.7096      2.0702      2.6009      3.3463      4.3568      5.6790      7.3415      9.3384      11.623    
  15.895      18.322      20.362      21.728      22.209      21.728      20.361      18.321      15.895      13.360    
  10.925      8.7268      6.8394      5.2906      4.0731      3.1529      2.4833      2.0157      1.7096      1.5365    
  1.4804      1.5365      1.7096      2.0158      2.4833      3.1529      4.0729      5.2907      6.8391      8.7263    
  10.926      13.359      17.611      19.787      21.413      22.285      22.285      21.414      19.787      17.612    
  15.146      12.660      10.335      8.2638      6.4996      5.0596      3.9335      3.0895      2.4833      2.0702    
  1.8143      1.6919      1.6919      1.8143      2.0702      2.4833      3.0895      3.9335      5.0597      6.4997    
  8.2642      10.335      12.659      15.147      18.583      20.102      21.060      21.388      21.060      20.102    
  18.581      16.613      14.360      12.054      9.8975      7.9737      6.3282      4.9825      3.9336      3.1528    
  2.6009      2.2373      2.0315      1.9648      2.0315      2.2373      2.6009      3.1529      3.9335      4.9828    
  6.3278      7.9740      9.8970      12.054      14.360      16.612      17.879      18.428      18.669      18.669    
  18.428      17.879      16.926      15.506      13.673      11.636      9.6637      7.8749      6.3280      5.0595    
  4.0731      3.3462      2.8430      2.5286      2.3779      2.3778      2.5287      2.8429      3.3463      4.0729    
  5.0597      6.3278      7.8753      9.6633      11.637      13.672      15.506      16.926      14.887      14.427    
  14.234      14.426      14.887      15.302      15.301      14.625      13.265      11.486      9.6634      7.9740    
  6.4996      5.2905      4.3568      3.6782      3.2238      2.9635      2.8792      2.9635      3.2238      3.6782    
  4.3568      5.2907      6.4997      7.9740      9.6633      11.486      13.264      14.625      15.301      15.302    
  9.7058      8.6072      8.6075      9.7064      11.475      13.226      14.290      14.288      13.264      11.637    
  9.8971      8.2642      6.8392      5.6791      4.7930      4.1634      3.7630      3.5690      3.5690      3.7629    
  4.1634      4.7929      5.6790      6.8391      8.2642      9.8970      11.637      13.264      14.288      14.289    
  13.226      11.475      3.3447      2.3491      3.3445      5.9846      9.3753      12.429      14.290      14.625    
  13.672      12.054      10.334      8.7263      7.3414      6.2269      5.3926      4.8180      4.4852      4.3751    
  4.4853      4.8180      5.3926      6.2270      7.3415      8.7263      10.335      12.054      13.672      14.625    
  14.289      12.429      9.3751      5.9853     -2.4916     -2.4914     0.15384      4.5715      9.3754      13.226    
  15.301      15.506      14.360      12.659      10.926      9.3384      7.9979      6.9385      6.1640      5.6594    
  5.4116      5.4116      5.6595      6.1640      6.9384      7.9978      9.3384      10.926      12.659      14.360    
  15.506      15.301      13.226      9.3751      4.5711     0.15362     -5.9929     -4.3158     0.15367      5.9856    
  11.475      15.302      16.926      16.613      15.147      13.360      11.623      10.078      8.7996      7.8104    
  7.1107      6.6951      6.5568      6.6951      7.1107      7.8105      8.7996      10.078      11.623      13.359    
  15.147      16.612      16.926      15.302      11.475      5.9853     0.15362     -4.3152     -1.2185      3.3446    
  9.2298      14.675      18.373      19.853      19.451      17.980      16.224      14.506      12.954      11.628    
  10.563      9.7766      9.2941      9.1302      9.2942      9.7767      10.563      11.629      12.954      14.506    
  16.225      17.981      19.451      19.853      18.373      14.675      9.2297      3.3444     -1.2188     -2.9404    
  3.3446      8.6072      14.233      18.669      21.060      21.414      20.362      18.749      17.065      15.469    
  14.044      12.824      11.845      11.152      10.791      10.791      11.152      11.845      12.823      14.044    
  15.470      17.065      18.749      20.362      21.414      21.060      18.669      14.234      8.6075      3.3442    
 0.15418     0.15401      9.2298      14.233      18.753      21.681      22.700      22.180      20.873      19.364    
  17.859      16.446      15.158      14.033      13.136      12.552      12.347      12.552      13.137      14.034    
  15.157      16.446      17.859      19.364      20.873      22.180      22.700      21.682      18.752      14.234    
  9.2293      5.2935      3.7997      5.2939      14.675      18.669      21.681      23.149      23.167      22.300    
  21.116      19.853      18.596      17.366      16.191      15.137      14.318      13.863      13.863      14.317    
  15.136      16.191      17.367      18.596      19.853      21.116      22.300      23.167      23.149      21.682    
  18.669      14.675      10.852      8.5058      8.5054      10.851      18.373      21.060      22.700      23.167    
  22.804      22.069      21.185      20.230      19.208      18.116      16.986      15.936      15.168      14.885    
  15.169      15.937      16.986      18.115      19.209      20.230      21.185      22.069      22.804      23.168    
  22.700      21.060      18.373      15.298      12.838      11.896      12.838      15.299      19.853      21.414    
  22.180      22.300      22.069      21.654      21.116      20.439      19.574      18.481      17.240      16.110    
  15.427      15.427      16.109      17.240      18.482      19.573      20.439      21.117      21.654      22.069    
  22.300      22.181      21.413      19.853      17.747      15.698      14.430      14.430      15.698      17.746    
  19.451      20.362      20.873      21.116      21.185      21.116      20.873      20.362      19.451      18.133    
  16.666      15.499      15.052      15.498      16.666      18.132      19.452      20.362      20.872      21.117    
  21.185      21.117      20.872      20.362      19.452      18.132      16.666      15.498      15.052      15.499    
  16.666      18.133      17.980      18.749      19.364      19.853      20.230      20.439      20.362      19.787    
  18.582      16.926      15.300      14.289      14.290      15.301      16.926      18.581      19.787      20.361    
  20.439      20.231      19.853      19.364      18.749      17.980      17.047      16.019      15.094      14.539    
  14.539      15.094      16.018      17.047      16.224      17.065      17.859      18.596      19.208      19.574    
  19.451      18.582      16.997      15.106      13.563      12.968      13.563      15.106      16.997      18.582    
  19.452      19.574      19.209      18.596      17.859      17.065      16.225      15.347      14.474      13.700    
  13.153      12.954      13.153      13.701      14.474      15.346      14.506      15.469      16.446      17.366    
  18.116      18.481      18.133      16.926      15.106      13.267      12.112      12.112      13.267      15.107    
  16.926      18.133      18.481      18.116      17.367      16.446      15.470      14.506      13.583      12.726    
  11.981      11.421      11.118      11.118      11.421      11.980      12.725      13.583      12.954      14.044    
  15.158      16.191      16.986      17.240      16.666      15.300      13.563      12.112      11.547      12.112    
  13.563      15.301      16.666      17.240      16.986      16.191      15.158      14.043      12.954      11.945    
  11.049      10.292      9.7096      9.3386      9.2116      9.3388      9.7101      10.293      11.049      11.944    
  11.628      12.824      14.033      15.137      15.936      16.110      15.499      14.289      12.968      12.112    
  12.112      12.968      14.290      15.499      16.109      15.936      15.137      14.033      12.824      11.629    
  10.530      9.5701      8.7725      8.1531      7.7281      7.5112      7.5111      7.7277      8.1527      8.7720    
  9.5705      10.530      10.563      11.845      13.136      14.318      15.168      15.427      15.052      14.290    
  13.563      13.267      13.563      14.290      15.053      15.427      15.169      14.318      13.137      11.845    