   2   2   1   0
  0.2044415E+02  0.3866975E-09  0.3866975E-09  0.3866975E-09  0.5000000E-15
   1.0000000000000000E-004
  CAR 
 unknown system                          
     16.69380076     -7.25188266 2001      5.89429772      1.00000000
     -7.252  0.0000E+00  0.0000E+00
     -7.240  0.0000E+00  0.0000E+00
     -7.228  0.0000E+00  0.0000E+00
     -7.216  0.0000E+00  0.0000E+00
     -7.204  0.0000E+00  0.0000E+00
     -7.192  0.0000E+00  0.0000E+00
     -7.180  0.0000E+00  0.0000E+00
     -7.168  0.0000E+00  0.0000E+00
     -7.156  0.0000E+00  0.0000E+00
     -7.144  0.0000E+00  0.0000E+00
     -7.132  0.0000E+00  0.0000E+00
     -7.120  0.0000E+00  0.0000E+00
     -7.108  0.0000E+00  0.0000E+00
     -7.096  0.0000E+00  0.0000E+00
     -7.084  0.0000E+00  0.0000E+00
     -7.072  0.0000E+00  0.0000E+00
     -7.060  0.0000E+00  0.0000E+00
     -7.048  0.0000E+00  0.0000E+00
     -7.036  0.0000E+00  0.0000E+00
     -7.024  0.0000E+00  0.0000E+00
     -7.012  0.0000E+00  0.0000E+00
     -7.000  0.0000E+00  0.0000E+00
     -6.988  0.0000E+00  0.0000E+00
     -6.977  0.0000E+00  0.0000E+00
     -6.965  0.0000E+00  0.0000E+00
     -6.953  0.0000E+00  0.0000E+00
     -6.941  0.0000E+00  0.0000E+00
     -6.929  0.0000E+00  0.0000E+00
     -6.917  0.0000E+00  0.0000E+00
     -6.905  0.0000E+00  0.0000E+00
     -6.893  0.0000E+00  0.0000E+00
     -6.881  0.0000E+00  0.0000E+00
     -6.869  0.0000E+00  0.0000E+00
     -6.857  0.0000E+00  0.0000E+00
     -6.845  0.0000E+00  0.0000E+00
     -6.833  0.0000E+00  0.0000E+00
     -6.821  0.0000E+00  0.0000E+00
     -6.809  0.0000E+00  0.0000E+00
     -6.797  0.0000E+00  0.0000E+00
     -6.785  0.0000E+00  0.0000E+00
     -6.773  0.0000E+00  0.0000E+00
     -6.761  0.0000E+00  0.0000E+00
     -6.749  0.0000E+00  0.0000E+00
     -6.737  0.0000E+00  0.0000E+00
     -6.725  0.0000E+00  0.0000E+00
     -6.713  0.0000E+00  0.0000E+00
     -6.701  0.0000E+00  0.0000E+00
     -6.689  0.0000E+00  0.0000E+00
     -6.677  0.0000E+00  0.0000E+00
     -6.665  0.0000E+00  0.0000E+00
     -6.653  0.0000E+00  0.0000E+00
     -6.641  0.0000E+00  0.0000E+00
     -6.629  0.0000E+00  0.0000E+00
     -6.617  0.0000E+00  0.0000E+00
     -6.605  0.0000E+00  0.0000E+00
     -6.593  0.0000E+00  0.0000E+00
     -6.581  0.0000E+00  0.0000E+00
     -6.569  0.0000E+00  0.0000E+00
     -6.557  0.0000E+00  0.0000E+00
     -6.545  0.0000E+00  0.0000E+00
     -6.534  0.0000E+00  0.0000E+00
     -6.522  0.0000E+00  0.0000E+00
     -6.510  0.0000E+00  0.0000E+00
     -6.498  0.0000E+00  0.0000E+00
     -6.486  0.0000E+00  0.0000E+00
     -6.474  0.0000E+00  0.0000E+00
     -6.462  0.0000E+00  0.0000E+00
     -6.450  0.7244E-15  0.8674E-17
     -6.438  0.1058E-13  0.1353E-15
     -6.426  0.1423E-12  0.1839E-14
     -6.414  0.1718E-11  0.2241E-13
     -6.402  0.1851E-10  0.2440E-12
     -6.390  0.1779E-09  0.2374E-11
     -6.378  0.1526E-08  0.2064E-10
     -6.366  0.1168E-07  0.1605E-09
     -6.354  0.7983E-07  0.1116E-08
     -6.342  0.4868E-06  0.6945E-08
     -6.330  0.2649E-05  0.3866E-07
     -6.318  0.1287E-04  0.1927E-06
     -6.306  0.5579E-04  0.8607E-06
     -6.294  0.2159E-03  0.3445E-05
     -6.282  0.7456E-03  0.1237E-04
     -6.270  0.2298E-02  0.3989E-04
     -6.258  0.6324E-02  0.1156E-03
     -6.246  0.1553E-01  0.3015E-03
     -6.234  0.3404E-01  0.7091E-03
     -6.222  0.6661E-01  0.1507E-02
     -6.210  0.1163E+00  0.2900E-02
     -6.198  0.1814E+00  0.5071E-02
     -6.186  0.2524E+00  0.8093E-02
     -6.174  0.3135E+00  0.1185E-01
     -6.162  0.3476E+00  0.1601E-01
     -6.150  0.3440E+00  0.2013E-01
     -6.138  0.3040E+00  0.2377E-01
     -6.126  0.2397E+00  0.2664E-01
     -6.114  0.1687E+00  0.2866E-01
     -6.102  0.1060E+00  0.2993E-01
     -6.091  0.5946E-01  0.3064E-01
     -6.079  0.2977E-01  0.3099E-01
     -6.067  0.1330E-01  0.3115E-01
     -6.055  0.5305E-02  0.3122E-01
     -6.043  0.1889E-02  0.3124E-01
     -6.031  0.6002E-03  0.3125E-01
     -6.019  0.1702E-03  0.3125E-01
     -6.007  0.4309E-04  0.3125E-01
     -5.995  0.9737E-05  0.3125E-01
     -5.983  0.1963E-05  0.3125E-01
     -5.971  0.3534E-06  0.3125E-01
     -5.959  0.5677E-07  0.3125E-01
     -5.947  0.8138E-08  0.3125E-01
     -5.935  0.1041E-08  0.3125E-01
     -5.923  0.1189E-09  0.3125E-01
     -5.911  0.1211E-10  0.3125E-01
     -5.899  0.1102E-11  0.3125E-01
     -5.887  0.8925E-13  0.3125E-01
     -5.875  0.6375E-14  0.3125E-01
     -5.863  0.5796E-15  0.3125E-01
     -5.851  0.0000E+00  0.3125E-01
     -5.839  0.0000E+00  0.3125E-01
     -5.827  0.0000E+00  0.3125E-01
     -5.815  0.0000E+00  0.3125E-01
     -5.803  0.0000E+00  0.3125E-01
     -5.791  0.0000E+00  0.3125E-01
     -5.779  0.0000E+00  0.3125E-01
     -5.767  0.0000E+00  0.3125E-01
     -5.755  0.0000E+00  0.3125E-01
     -5.743  0.0000E+00  0.3125E-01
     -5.731  0.0000E+00  0.3125E-01
     -5.719  0.0000E+00  0.3125E-01
     -5.707  0.0000E+00  0.3125E-01
     -5.695  0.0000E+00  0.3125E-01
     -5.683  0.0000E+00  0.3125E-01
     -5.671  0.1159E-14  0.3125E-01
     -5.659  0.1623E-13  0.3125E-01
     -5.648  0.2411E-12  0.3125E-01
     -5.636  0.3115E-11  0.3125E-01
     -5.624  0.3592E-10  0.3125E-01
     -5.612  0.3698E-09  0.3125E-01
     -5.600  0.3397E-08  0.3125E-01
     -5.588  0.2785E-07  0.3125E-01
     -5.576  0.2038E-06  0.3125E-01
     -5.564  0.1331E-05  0.3125E-01
     -5.552  0.7754E-05  0.3125E-01
     -5.540  0.4033E-04  0.3125E-01
     -5.528  0.1872E-03  0.3125E-01
     -5.516  0.7758E-03  0.3126E-01
     -5.504  0.2869E-02  0.3130E-01
     -5.492  0.9469E-02  0.3141E-01
     -5.480  0.2790E-01  0.3174E-01
     -5.468  0.7336E-01  0.3262E-01
     -5.456  0.1722E+00  0.3468E-01
     -5.444  0.3607E+00  0.3900E-01
     -5.432  0.6746E+00  0.4708E-01
     -5.420  0.1126E+01  0.6056E-01
     -5.408  0.1678E+01  0.8065E-01
     -5.396  0.2232E+01  0.1074E+00
     -5.384  0.2649E+01  0.1391E+00
     -5.372  0.2808E+01  0.1727E+00
     -5.360  0.2656E+01  0.2045E+00
     -5.348  0.2242E+01  0.2313E+00
     -5.336  0.1690E+01  0.2516E+00
     -5.324  0.1137E+01  0.2652E+00
     -5.312  0.6828E+00  0.2734E+00
     -5.300  0.3660E+00  0.2778E+00
     -5.288  0.1751E+00  0.2798E+00
     -5.276  0.7479E-01  0.2807E+00
     -5.264  0.2853E-01  0.2811E+00
     -5.252  0.9804E-02  0.2812E+00
     -5.240  0.3385E-02  0.2812E+00
     -5.228  0.2459E-02  0.2813E+00
     -5.216  0.5803E-02  0.2813E+00
     -5.205  0.1696E-01  0.2815E+00
     -5.193  0.4554E-01  0.2821E+00
     -5.181  0.1094E+00  0.2834E+00
     -5.169  0.2346E+00  0.2862E+00
     -5.157  0.4491E+00  0.2916E+00
     -5.145  0.7673E+00  0.3008E+00
     -5.133  0.1170E+01  0.3148E+00
     -5.121  0.1593E+01  0.3339E+00
     -5.109  0.1936E+01  0.3570E+00
     -5.097  0.2100E+01  0.3822E+00
     -5.085  0.2033E+01  0.4065E+00
     -5.073  0.1757E+01  0.4276E+00
     -5.061  0.1356E+01  0.4438E+00
     -5.049  0.9336E+00  0.4550E+00
     -5.037  0.5739E+00  0.4619E+00
     -5.025  0.3149E+00  0.4656E+00
     -5.013  0.1542E+00  0.4675E+00
     -5.001  0.6741E-01  0.4683E+00
     -4.989  0.2631E-01  0.4686E+00
     -4.977  0.9162E-02  0.4687E+00
     -4.965  0.2848E-02  0.4687E+00
     -4.953  0.7902E-03  0.4687E+00
     -4.941  0.1957E-03  0.4687E+00
     -4.929  0.4326E-04  0.4687E+00
     -4.917  0.8533E-05  0.4687E+00
     -4.905  0.1502E-05  0.4687E+00
     -4.893  0.2361E-06  0.4687E+00
     -4.881  0.3311E-07  0.4687E+00
     -4.869  0.4144E-08  0.4687E+00
     -4.857  0.4629E-09  0.4687E+00
     -4.845  0.4614E-10  0.4687E+00
     -4.833  0.4103E-11  0.4687E+00
     -4.821  0.3269E-12  0.4687E+00
     -4.809  0.2260E-13  0.4688E+00
     -4.797  0.1739E-14  0.4688E+00
     -4.785  0.0000E+00  0.4688E+00
     -4.774  0.0000E+00  0.4688E+00
     -4.762  0.0000E+00  0.4688E+00
     -4.750  0.0000E+00  0.4688E+00
     -4.738  0.0000E+00  0.4688E+00
     -4.726  0.0000E+00  0.4688E+00
     -4.714  0.0000E+00  0.4688E+00
     -4.702  0.0000E+00  0.4688E+00
     -4.690  0.0000E+00  0.4688E+00
     -4.678  0.0000E+00  0.4688E+00
     -4.666  0.0000E+00  0.4688E+00
     -4.654  0.0000E+00  0.4688E+00
     -4.642  0.0000E+00  0.4688E+00
     -4.630  0.0000E+00  0.4688E+00
     -4.618  0.0000E+00  0.4688E+00
     -4.606  0.0000E+00  0.4688E+00
     -4.594  0.0000E+00  0.4688E+00
     -4.582  0.0000E+00  0.4688E+00
     -4.570  0.0000E+00  0.4688E+00
     -4.558  0.0000E+00  0.4688E+00
     -4.546  0.0000E+00  0.4688E+00
     -4.534  0.0000E+00  0.4688E+00
     -4.522  0.0000E+00  0.4688E+00
     -4.510  0.0000E+00  0.4688E+00
     -4.498  0.0000E+00  0.4688E+00
     -4.486  0.0000E+00  0.4688E+00
     -4.474  0.0000E+00  0.4688E+00
     -4.462  0.0000E+00  0.4688E+00
     -4.450  0.1739E-14  0.4688E+00
     -4.438  0.2956E-13  0.4688E+00
     -4.426  0.4312E-12  0.4688E+00
     -4.414  0.5517E-11  0.4688E+00
     -4.402  0.6316E-10  0.4688E+00
     -4.390  0.6453E-09  0.4688E+00
     -4.378  0.5883E-08  0.4688E+00
     -4.366  0.4787E-07  0.4688E+00
     -4.354  0.3476E-06  0.4688E+00
     -4.342  0.2253E-05  0.4688E+00
     -4.331  0.1303E-04  0.4688E+00
     -4.319  0.6725E-04  0.4688E+00
     -4.307  0.3098E-03  0.4688E+00
     -4.295  0.1274E-02  0.4688E+00
     -4.283  0.4676E-02  0.4688E+00
     -4.271  0.1532E-01  0.4690E+00
     -4.259  0.4479E-01  0.4695E+00
     -4.247  0.1169E+00  0.4709E+00
     -4.235  0.2723E+00  0.4742E+00
     -4.223  0.5662E+00  0.4810E+00
     -4.211  0.1051E+01  0.4936E+00
     -4.199  0.1741E+01  0.5144E+00
     -4.187  0.2574E+01  0.5452E+00
     -4.175  0.3398E+01  0.5859E+00
     -4.163  0.4003E+01  0.6338E+00
     -4.151  0.4211E+01  0.6843E+00
     -4.139  0.3953E+01  0.7316E+00
     -4.127  0.3312E+01  0.7712E+00
     -4.115  0.2478E+01  0.8009E+00
     -4.103  0.1654E+01  0.8207E+00
     -4.091  0.9860E+00  0.8325E+00
     -4.079  0.5245E+00  0.8388E+00
     -4.067  0.2491E+00  0.8418E+00
     -4.055  0.1056E+00  0.8430E+00
     -4.043  0.3996E-01  0.8435E+00
     -4.031  0.1359E-01  0.8437E+00
     -4.019  0.4487E-02  0.8437E+00
     -4.007  0.2643E-02  0.8438E+00
     -3.995  0.5340E-02  0.8438E+00
     -3.983  0.1491E-01  0.8440E+00
     -3.971  0.3880E-01  0.8445E+00
     -3.959  0.9040E-01  0.8456E+00
     -3.947  0.1881E+00  0.8478E+00
     -3.935  0.3493E+00  0.8520E+00
     -3.923  0.5790E+00  0.8589E+00
     -3.911  0.8566E+00  0.8692E+00
     -3.899  0.1131E+01  0.8827E+00
     -3.888  0.1334E+01  0.8987E+00
     -3.876  0.1404E+01  0.9155E+00
     -3.864  0.1318E+01  0.9313E+00
     -3.852  0.1105E+01  0.9445E+00
     -3.840  0.8274E+00  0.9544E+00
     -3.828  0.5527E+00  0.9610E+00
     -3.816  0.3296E+00  0.9650E+00
     -3.804  0.1755E+00  0.9671E+00
     -3.792  0.8336E-01  0.9681E+00
     -3.780  0.3535E-01  0.9685E+00
     -3.768  0.1338E-01  0.9687E+00
     -3.756  0.4522E-02  0.9687E+00
     -3.744  0.1364E-02  0.9687E+00
     -3.732  0.3671E-03  0.9687E+00
     -3.720  0.8819E-04  0.9687E+00
     -3.708  0.1897E-04  0.9687E+00
     -3.696  0.4088E-05  0.9687E+00
     -3.684  0.3731E-05  0.9688E+00
     -3.672  0.1852E-04  0.9688E+00
     -3.660  0.9733E-04  0.9688E+00
     -3.648  0.4588E-03  0.9688E+00
     -3.636  0.1931E-02  0.9688E+00
     -3.624  0.7251E-02  0.9689E+00
     -3.612  0.2431E-01  0.9692E+00
     -3.600  0.7273E-01  0.9700E+00
     -3.588  0.1942E+00  0.9724E+00
     -3.576  0.4630E+00  0.9779E+00
     -3.564  0.9851E+00  0.9897E+00
     -3.552  0.1871E+01  0.1012E+01
     -3.540  0.3172E+01  0.1050E+01
     -3.528  0.4800E+01  0.1108E+01
     -3.516  0.6483E+01  0.1185E+01
     -3.504  0.7816E+01  0.1279E+01
     -3.492  0.8412E+01  0.1379E+01
     -3.480  0.8081E+01  0.1476E+01
     -3.468  0.6930E+01  0.1559E+01
     -3.456  0.5305E+01  0.1623E+01
     -3.445  0.3624E+01  0.1666E+01
     -3.433  0.2210E+01  0.1693E+01
     -3.421  0.1203E+01  0.1707E+01
     -3.409  0.5847E+00  0.1714E+01
     -3.397  0.2536E+00  0.1717E+01
     -3.385  0.9818E-01  0.1718E+01
     -3.373  0.3393E-01  0.1719E+01
     -3.361  0.1046E-01  0.1719E+01
     -3.349  0.2881E-02  0.1719E+01
     -3.337  0.7078E-03  0.1719E+01
     -3.325  0.1552E-03  0.1719E+01
     -3.313  0.3038E-04  0.1719E+01
     -3.301  0.5308E-05  0.1719E+01
     -3.289  0.8275E-06  0.1719E+01
     -3.277  0.1151E-06  0.1719E+01
     -3.265  0.1430E-07  0.1719E+01
     -3.253  0.1585E-08  0.1719E+01
     -3.241  0.1567E-09  0.1719E+01
     -3.229  0.1383E-10  0.1719E+01
     -3.217  0.1085E-11  0.1719E+01
     -3.205  0.8346E-13  0.1719E+01
     -3.193  0.0000E+00  0.1719E+01
     -3.181  0.0000E+00  0.1719E+01
     -3.169  0.0000E+00  0.1719E+01
     -3.157  0.0000E+00  0.1719E+01
     -3.145  0.0000E+00  0.1719E+01
     -3.133  0.0000E+00  0.1719E+01
     -3.121  0.0000E+00  0.1719E+01
     -3.109  0.0000E+00  0.1719E+01
     -3.097  0.0000E+00  0.1719E+01
     -3.085  0.0000E+00  0.1719E+01
     -3.073  0.0000E+00  0.1719E+01
     -3.061  0.0000E+00  0.1719E+01
     -3.049  0.0000E+00  0.1719E+01
     -3.037  0.0000E+00  0.1719E+01
     -3.025  0.0000E+00  0.1719E+01
     -3.013  0.0000E+00  0.1719E+01
     -3.002  0.0000E+00  0.1719E+01
     -2.990  0.0000E+00  0.1719E+01
     -2.978  0.0000E+00  0.1719E+01
     -2.966  0.0000E+00  0.1719E+01
     -2.954  0.0000E+00  0.1719E+01
     -2.942  0.0000E+00  0.1719E+01
     -2.930  0.0000E+00  0.1719E+01
     -2.918  0.0000E+00  0.1719E+01
     -2.906  0.0000E+00  0.1719E+01
     -2.894  0.0000E+00  0.1719E+01
     -2.882  0.0000E+00  0.1719E+01
     -2.870  0.0000E+00  0.1719E+01
     -2.858  0.0000E+00  0.1719E+01
     -2.846  0.0000E+00  0.1719E+01
     -2.834  0.0000E+00  0.1719E+01
     -2.822  0.0000E+00  0.1719E+01
     -2.810  0.0000E+00  0.1719E+01
     -2.798  0.0000E+00  0.1719E+01
     -2.786  0.0000E+00  0.1719E+01
     -2.774  0.0000E+00  0.1719E+01
     -2.762  0.0000E+00  0.1719E+01
     -2.750  0.0000E+00  0.1719E+01
     -2.738  0.0000E+00  0.1719E+01
     -2.726  0.0000E+00  0.1719E+01
     -2.714  0.0000E+00  0.1719E+01
     -2.702  0.0000E+00  0.1719E+01
     -2.690  0.0000E+00  0.1719E+01
     -2.678  0.0000E+00  0.1719E+01
     -2.666  0.0000E+00  0.1719E+01
     -2.654  0.0000E+00  0.1719E+01
     -2.642  0.0000E+00  0.1719E+01
     -2.630  0.0000E+00  0.1719E+01
     -2.618  0.0000E+00  0.1719E+01
     -2.606  0.0000E+00  0.1719E+01
     -2.594  0.0000E+00  0.1719E+01
     -2.582  0.0000E+00  0.1719E+01
     -2.571  0.0000E+00  0.1719E+01
     -2.559  0.0000E+00  0.1719E+01
     -2.547  0.0000E+00  0.1719E+01
     -2.535  0.0000E+00  0.1719E+01
     -2.523  0.0000E+00  0.1719E+01
     -2.511  0.0000E+00  0.1719E+01
     -2.499  0.0000E+00  0.1719E+01
     -2.487  0.0000E+00  0.1719E+01
     -2.475  0.0000E+00  0.1719E+01
     -2.463  0.0000E+00  0.1719E+01
     -2.451  0.0000E+00  0.1719E+01
     -2.439  0.0000E+00  0.1719E+01
     -2.427  0.0000E+00  0.1719E+01
     -2.415  0.0000E+00  0.1719E+01
     -2.403  0.0000E+00  0.1719E+01
     -2.391  0.0000E+00  0.1719E+01
     -2.379  0.2608E-14  0.1719E+01
     -2.367  0.4086E-13  0.1719E+01
     -2.355  0.5594E-12  0.1719E+01
     -2.343  0.6882E-11  0.1719E+01
     -2.331  0.7554E-10  0.1719E+01
     -2.319  0.7400E-09  0.1719E+01
     -2.307  0.6469E-08  0.1719E+01
     -2.295  0.5046E-07  0.1719E+01
     -2.283  0.3513E-06  0.1719E+01
     -2.271  0.2183E-05  0.1719E+01
     -2.259  0.1211E-04  0.1719E+01
     -2.247  0.5993E-04  0.1719E+01
     -2.235  0.2647E-03  0.1719E+01
     -2.223  0.1044E-02  0.1719E+01
     -2.211  0.3673E-02  0.1719E+01
     -2.199  0.1154E-01  0.1719E+01
     -2.187  0.3235E-01  0.1719E+01
     -2.175  0.8095E-01  0.1720E+01
     -2.163  0.1808E+00  0.1722E+01
     -2.151  0.3605E+00  0.1727E+01
     -2.139  0.6416E+00  0.1734E+01
     -2.128  0.1019E+01  0.1747E+01
     -2.116  0.1445E+01  0.1764E+01
     -2.104  0.1829E+01  0.1786E+01
     -2.092  0.2067E+01  0.1811E+01
     -2.080  0.2085E+01  0.1836E+01
     -2.068  0.1878E+01  0.1858E+01
     -2.056  0.1515E+01  0.1876E+01
     -2.044  0.1105E+01  0.1889E+01
     -2.032  0.7580E+00  0.1899E+01
     -2.020  0.5598E+00  0.1905E+01
     -2.008  0.5679E+00  0.1912E+01
     -1.996  0.8204E+00  0.1922E+01
     -1.984  0.1331E+01  0.1938E+01
     -1.972  0.2065E+01  0.1962E+01
     -1.960  0.2908E+01  0.1997E+01
     -1.948  0.3670E+01  0.2041E+01
     -1.936  0.4138E+01  0.2091E+01
     -1.924  0.4165E+01  0.2141E+01
     -1.912  0.3742E+01  0.2185E+01
     -1.900  0.3002E+01  0.2221E+01
     -1.888  0.2149E+01  0.2247E+01
     -1.876  0.1373E+01  0.2264E+01
     -1.864  0.7834E+00  0.2273E+01
     -1.852  0.3989E+00  0.2278E+01
     -1.840  0.1813E+00  0.2280E+01
     -1.828  0.7354E-01  0.2281E+01
     -1.816  0.2663E-01  0.2281E+01
     -1.804  0.8606E-02  0.2281E+01
     -1.792  0.2483E-02  0.2281E+01
     -1.780  0.6392E-03  0.2281E+01
     -1.768  0.1469E-03  0.2281E+01
     -1.756  0.3013E-04  0.2281E+01
     -1.744  0.5515E-05  0.2281E+01
     -1.732  0.9011E-06  0.2281E+01
     -1.720  0.1314E-06  0.2281E+01
     -1.708  0.1710E-07  0.2281E+01
     -1.696  0.1986E-08  0.2281E+01
     -1.685  0.2058E-09  0.2281E+01
     -1.673  0.1903E-10  0.2281E+01
     -1.661  0.1572E-11  0.2281E+01
     -1.649  0.1182E-12  0.2281E+01
     -1.637  0.6955E-14  0.2281E+01
     -1.625  0.0000E+00  0.2281E+01
     -1.613  0.0000E+00  0.2281E+01
     -1.601  0.0000E+00  0.2281E+01
     -1.589  0.0000E+00  0.2281E+01
     -1.577  0.0000E+00  0.2281E+01
     -1.565  0.0000E+00  0.2281E+01
     -1.553  0.0000E+00  0.2281E+01
     -1.541  0.0000E+00  0.2281E+01
     -1.529  0.0000E+00  0.2281E+01
     -1.517  0.0000E+00  0.2281E+01
     -1.505  0.2898E-14  0.2281E+01
     -1.493  0.4231E-13  0.2281E+01
     -1.481  0.5691E-12  0.2281E+01
     -1.469  0.6871E-11  0.2281E+01
     -1.457  0.7401E-10  0.2281E+01
     -1.445  0.7115E-09  0.2281E+01
     -1.433  0.6103E-08  0.2281E+01
     -1.421  0.4673E-07  0.2281E+01
     -1.409  0.3193E-06  0.2281E+01
     -1.397  0.1947E-05  0.2281E+01
     -1.385  0.1060E-04  0.2281E+01
     -1.373  0.5147E-04  0.2281E+01
     -1.361  0.2231E-03  0.2281E+01
     -1.349  0.8635E-03  0.2281E+01
     -1.337  0.2982E-02  0.2281E+01
     -1.325  0.9193E-02  0.2281E+01
     -1.313  0.2529E-01  0.2282E+01
     -1.301  0.6212E-01  0.2282E+01
     -1.289  0.1362E+00  0.2284E+01
     -1.277  0.2664E+00  0.2287E+01
     -1.265  0.4654E+00  0.2293E+01
     -1.253  0.7255E+00  0.2302E+01
     -1.242  0.1010E+01  0.2314E+01
     -1.230  0.1254E+01  0.2329E+01
     -1.218  0.1390E+01  0.2345E+01
     -1.206  0.1376E+01  0.2362E+01
     -1.194  0.1216E+01  0.2376E+01
     -1.182  0.9588E+00  0.2388E+01
     -1.170  0.6749E+00  0.2396E+01
     -1.158  0.4241E+00  0.2401E+01
     -1.146  0.2378E+00  0.2404E+01
     -1.134  0.1191E+00  0.2405E+01
     -1.122  0.5321E-01  0.2406E+01
     -1.110  0.2122E-01  0.2406E+01
     -1.098  0.7555E-02  0.2406E+01
     -1.086  0.2401E-02  0.2406E+01
     -1.074  0.6810E-03  0.2406E+01
     -1.062  0.1724E-03  0.2406E+01
     -1.050  0.3895E-04  0.2406E+01
     -1.038  0.7855E-05  0.2406E+01
     -1.026  0.1414E-05  0.2406E+01
     -1.014  0.2271E-06  0.2406E+01
     -1.002  0.3255E-07  0.2406E+01
     -0.990  0.4165E-08  0.2406E+01
     -0.978  0.4756E-09  0.2406E+01
     -0.966  0.4846E-10  0.2406E+01
     -0.954  0.4424E-11  0.2406E+01
     -0.942  0.6282E-12  0.2406E+01
     -0.930  0.3649E-11  0.2406E+01
     -0.918  0.4363E-10  0.2406E+01
     -0.906  0.4687E-09  0.2406E+01
     -0.894  0.4494E-08  0.2406E+01
     -0.882  0.3845E-07  0.2406E+01
     -0.870  0.2936E-06  0.2406E+01
     -0.858  0.2001E-05  0.2406E+01
     -0.846  0.1217E-04  0.2406E+01
     -0.834  0.6605E-04  0.2406E+01
     -0.822  0.3200E-03  0.2406E+01
     -0.810  0.1384E-02  0.2406E+01
     -0.799  0.5339E-02  0.2406E+01
     -0.787  0.1839E-01  0.2407E+01
     -0.775  0.5654E-01  0.2407E+01
     -0.763  0.1552E+00  0.2409E+01
     -0.751  0.3801E+00  0.2414E+01
     -0.739  0.8310E+00  0.2424E+01
     -0.727  0.1622E+01  0.2443E+01
     -0.715  0.2825E+01  0.2477E+01
     -0.703  0.4392E+01  0.2529E+01
     -0.691  0.6096E+01  0.2602E+01
     -0.679  0.7552E+01  0.2693E+01
     -0.667  0.8352E+01  0.2793E+01
     -0.655  0.8244E+01  0.2892E+01
     -0.643  0.7264E+01  0.2978E+01
     -0.631  0.5713E+01  0.3047E+01
     -0.619  0.4011E+01  0.3095E+01
     -0.607  0.2514E+01  0.3125E+01
     -0.595  0.1406E+01  0.3142E+01
     -0.583  0.7021E+00  0.3150E+01
     -0.571  0.3129E+00  0.3154E+01
     -0.559  0.1245E+00  0.3155E+01
     -0.547  0.4420E-01  0.3156E+01
     -0.535  0.1401E-01  0.3156E+01
     -0.523  0.3962E-02  0.3156E+01
     -0.511  0.1000E-02  0.3156E+01
     -0.499  0.2254E-03  0.3156E+01
     -0.487  0.4534E-04  0.3156E+01
     -0.475  0.8139E-05  0.3156E+01
     -0.463  0.1304E-05  0.3156E+01
     -0.451  0.1864E-06  0.3156E+01
     -0.439  0.2379E-07  0.3156E+01
     -0.427  0.2709E-08  0.3156E+01
     -0.415  0.2753E-09  0.3156E+01
     -0.403  0.2497E-10  0.3156E+01
     -0.391  0.2024E-11  0.3156E+01
     -0.379  0.1391E-12  0.3156E+01
     -0.367  0.1391E-13  0.3156E+01
     -0.356  0.0000E+00  0.3156E+01
     -0.344  0.0000E+00  0.3156E+01
     -0.332  0.0000E+00  0.3156E+01
     -0.320  0.0000E+00  0.3156E+01
     -0.308  0.0000E+00  0.3156E+01
     -0.296  0.0000E+00  0.3156E+01
     -0.284  0.0000E+00  0.3156E+01
     -0.272  0.0000E+00  0.3156E+01
     -0.260  0.0000E+00  0.3156E+01
     -0.248  0.0000E+00  0.3156E+01
     -0.236  0.0000E+00  0.3156E+01
     -0.224  0.0000E+00  0.3156E+01
     -0.212  0.0000E+00  0.3156E+01
     -0.200  0.0000E+00  0.3156E+01
     -0.188  0.0000E+00  0.3156E+01
     -0.176  0.0000E+00  0.3156E+01
     -0.164  0.0000E+00  0.3156E+01
     -0.152  0.0000E+00  0.3156E+01
     -0.140  0.0000E+00  0.3156E+01
     -0.128  0.0000E+00  0.3156E+01
     -0.116  0.0000E+00  0.3156E+01
     -0.104  0.0000E+00  0.3156E+01
     -0.092  0.0000E+00  0.3156E+01
     -0.080  0.0000E+00  0.3156E+01
     -0.068  0.8693E-14  0.3156E+01
     -0.056  0.1321E-12  0.3156E+01
     -0.044  0.1768E-11  0.3156E+01
     -0.032  0.2131E-10  0.3156E+01
     -0.020  0.2292E-09  0.3156E+01
     -0.008  0.2200E-08  0.3156E+01
      0.004  0.1885E-07  0.3156E+01
      0.016  0.1441E-06  0.3156E+01
      0.028  0.9827E-06  0.3156E+01
      0.040  0.5983E-05  0.3156E+01
      0.052  0.3251E-04  0.3156E+01
      0.064  0.1577E-03  0.3156E+01
      0.075  0.6825E-03  0.3156E+01
      0.087  0.2637E-02  0.3156E+01
      0.099  0.9093E-02  0.3156E+01
      0.111  0.2799E-01  0.3157E+01
      0.123  0.7688E-01  0.3158E+01
      0.135  0.1885E+00  0.3160E+01
      0.147  0.4126E+00  0.3165E+01
      0.159  0.8061E+00  0.3175E+01
      0.171  0.1406E+01  0.3191E+01
      0.183  0.2188E+01  0.3218E+01
      0.195  0.3040E+01  0.3254E+01
      0.207  0.3770E+01  0.3299E+01
      0.219  0.4174E+01  0.3349E+01
      0.231  0.4125E+01  0.3398E+01
      0.243  0.3638E+01  0.3442E+01
      0.255  0.2865E+01  0.3476E+01
      0.267  0.2013E+01  0.3500E+01
      0.279  0.1263E+01  0.3516E+01
      0.291  0.7073E+00  0.3524E+01
      0.303  0.3535E+00  0.3528E+01
      0.315  0.1577E+00  0.3530E+01
      0.327  0.6282E-01  0.3531E+01
      0.339  0.2233E-01  0.3531E+01
      0.351  0.7084E-02  0.3531E+01
      0.363  0.2006E-02  0.3531E+01
      0.375  0.5071E-03  0.3531E+01
      0.387  0.1144E-03  0.3531E+01
      0.399  0.2303E-04  0.3531E+01
      0.411  0.4139E-05  0.3531E+01
      0.423  0.6638E-06  0.3531E+01
      0.435  0.9501E-07  0.3531E+01
      0.447  0.1214E-07  0.3531E+01
      0.459  0.1384E-08  0.3531E+01
      0.471  0.1408E-09  0.3531E+01
      0.483  0.1278E-10  0.3531E+01
      0.495  0.1036E-11  0.3531E+01
      0.507  0.7302E-13  0.3531E+01
      0.518  0.6955E-14  0.3531E+01
      0.530  0.0000E+00  0.3531E+01
      0.542  0.0000E+00  0.3531E+01
      0.554  0.0000E+00  0.3531E+01
      0.566  0.0000E+00  0.3531E+01
      0.578  0.0000E+00  0.3531E+01
      0.590  0.0000E+00  0.3531E+01
      0.602  0.0000E+00  0.3531E+01
      0.614  0.0000E+00  0.3531E+01
      0.626  0.0000E+00  0.3531E+01
      0.638  0.0000E+00  0.3531E+01
      0.650  0.0000E+00  0.3531E+01
      0.662  0.0000E+00  0.3531E+01
      0.674  0.0000E+00  0.3531E+01
      0.686  0.0000E+00  0.3531E+01
      0.698  0.0000E+00  0.3531E+01
      0.710  0.0000E+00  0.3531E+01
      0.722  0.0000E+00  0.3531E+01
      0.734  0.0000E+00  0.3531E+01
      0.746  0.0000E+00  0.3531E+01
      0.758  0.0000E+00  0.3531E+01
      0.770  0.0000E+00  0.3531E+01
      0.782  0.0000E+00  0.3531E+01
      0.794  0.0000E+00  0.3531E+01
      0.806  0.0000E+00  0.3531E+01
      0.818  0.0000E+00  0.3531E+01
      0.830  0.0000E+00  0.3531E+01
      0.842  0.0000E+00  0.3531E+01
      0.854  0.0000E+00  0.3531E+01
      0.866  0.0000E+00  0.3531E+01
      0.878  0.0000E+00  0.3531E+01
      0.890  0.0000E+00  0.3531E+01
      0.902  0.0000E+00  0.3531E+01
      0.914  0.0000E+00  0.3531E+01
      0.926  0.0000E+00  0.3531E+01
      0.938  0.0000E+00  0.3531E+01
      0.950  0.0000E+00  0.3531E+01
      0.961  0.0000E+00  0.3531E+01
      0.973  0.0000E+00  0.3531E+01
      0.985  0.0000E+00  0.3531E+01
      0.997  0.0000E+00  0.3531E+01
      1.009  0.0000E+00  0.3531E+01
      1.021  0.0000E+00  0.3531E+01
      1.033  0.0000E+00  0.3531E+01
      1.045  0.0000E+00  0.3531E+01
      1.057  0.0000E+00  0.3531E+01
      1.069  0.0000E+00  0.3531E+01
      1.081  0.0000E+00  0.3531E+01
      1.093  0.0000E+00  0.3531E+01
      1.105  0.0000E+00  0.3531E+01
      1.117  0.0000E+00  0.3531E+01
      1.129  0.0000E+00  0.3531E+01
      1.141  0.0000E+00  0.3531E+01
      1.153  0.0000E+00  0.3531E+01
      1.165  0.0000E+00  0.3531E+01
      1.177  0.0000E+00  0.3531E+01
      1.189  0.0000E+00  0.3531E+01
      1.201  0.0000E+00  0.3531E+01
      1.213  0.0000E+00  0.3531E+01
      1.225  0.0000E+00  0.3531E+01
      1.237  0.0000E+00  0.3531E+01
      1.249  0.0000E+00  0.3531E+01
      1.261  0.0000E+00  0.3531E+01
      1.273  0.0000E+00  0.3531E+01
      1.285  0.0000E+00  0.3531E+01
      1.297  0.0000E+00  0.3531E+01
      1.309  0.0000E+00  0.3531E+01
      1.321  0.0000E+00  0.3531E+01
      1.333  0.0000E+00  0.3531E+01
      1.345  0.0000E+00  0.3531E+01
      1.357  0.0000E+00  0.3531E+01
      1.369  0.0000E+00  0.3531E+01
      1.381  0.0000E+00  0.3531E+01
      1.393  0.0000E+00  0.3531E+01
      1.404  0.0000E+00  0.3531E+01
      1.416  0.0000E+00  0.3531E+01
      1.428  0.0000E+00  0.3531E+01
      1.440  0.0000E+00  0.3531E+01
      1.452  0.0000E+00  0.3531E+01
      1.464  0.0000E+00  0.3531E+01
      1.476  0.1159E-14  0.3531E+01
      1.488  0.1391E-13  0.3531E+01
      1.500  0.1994E-12  0.3531E+01
      1.512  0.2607E-11  0.3531E+01
      1.524  0.3031E-10  0.3531E+01
      1.536  0.3145E-09  0.3531E+01
      1.548  0.2913E-08  0.3531E+01
      1.560  0.2408E-07  0.3531E+01
      1.572  0.1776E-06  0.3531E+01
      1.584  0.1169E-05  0.3531E+01
      1.596  0.6868E-05  0.3531E+01
      1.608  0.3601E-04  0.3531E+01
      1.620  0.1685E-03  0.3531E+01
      1.632  0.7039E-03  0.3531E+01
      1.644  0.2624E-02  0.3531E+01
      1.656  0.8732E-02  0.3531E+01
      1.668  0.2593E-01  0.3532E+01
      1.680  0.6875E-01  0.3533E+01
      1.692  0.1627E+00  0.3534E+01
      1.704  0.3436E+00  0.3539E+01
      1.716  0.6477E+00  0.3546E+01
      1.728  0.1090E+01  0.3559E+01
      1.740  0.1638E+01  0.3579E+01
      1.752  0.2196E+01  0.3605E+01
      1.764  0.2632E+01  0.3637E+01
      1.776  0.2823E+01  0.3671E+01
      1.788  0.2725E+01  0.3703E+01
      1.800  0.2404E+01  0.3732E+01
      1.812  0.2021E+01  0.3756E+01
      1.824  0.1771E+01  0.3777E+01
      1.836  0.1810E+01  0.3799E+01
      1.847  0.2190E+01  0.3825E+01
      1.859  0.2835E+01  0.3859E+01
      1.871  0.3559E+01  0.3902E+01
      1.883  0.4129E+01  0.3951E+01
      1.895  0.4374E+01  0.4004E+01
      1.907  0.4267E+01  0.4055E+01
      1.919  0.3953E+01  0.4102E+01
      1.931  0.3665E+01  0.4146E+01
      1.943  0.3598E+01  0.4189E+01
      1.955  0.3797E+01  0.4235E+01
      1.967  0.4127E+01  0.4284E+01
      1.979  0.4355E+01  0.4336E+01
      1.991  0.4274E+01  0.4387E+01
      2.003  0.3814E+01  0.4433E+01
      2.015  0.3063E+01  0.4470E+01
      2.027  0.2206E+01  0.4496E+01
      2.039  0.1430E+01  0.4513E+01
      2.051  0.8561E+00  0.4523E+01
      2.063  0.5267E+00  0.4530E+01
      2.075  0.4398E+00  0.4535E+01
      2.087  0.5889E+00  0.4542E+01
      2.099  0.9861E+00  0.4554E+01
      2.111  0.1662E+01  0.4574E+01
      2.123  0.2648E+01  0.4605E+01
      2.135  0.3943E+01  0.4653E+01
      2.147  0.5480E+01  0.4718E+01
      2.159  0.7089E+01  0.4803E+01
      2.171  0.8489E+01  0.4905E+01
      2.183  0.9344E+01  0.5017E+01
      2.195  0.9390E+01  0.5129E+01
      2.207  0.8563E+01  0.5232E+01
      2.219  0.7053E+01  0.5316E+01
      2.231  0.5227E+01  0.5379E+01
      2.243  0.3477E+01  0.5420E+01
      2.255  0.2072E+01  0.5445E+01
      2.267  0.1105E+01  0.5458E+01
      2.278  0.5266E+00  0.5465E+01
      2.290  0.2243E+00  0.5467E+01
      2.302  0.8535E-01  0.5468E+01
      2.314  0.2900E-01  0.5469E+01
      2.326  0.8797E-02  0.5469E+01
      2.338  0.2383E-02  0.5469E+01
      2.350  0.5760E-03  0.5469E+01
      2.362  0.1243E-03  0.5469E+01
      2.374  0.2394E-04  0.5469E+01
      2.386  0.4115E-05  0.5469E+01
      2.398  0.6314E-06  0.5469E+01
      2.410  0.8645E-07  0.5469E+01
      2.422  0.1057E-07  0.5469E+01
      2.434  0.1152E-08  0.5469E+01
      2.446  0.1121E-09  0.5469E+01
      2.458  0.9743E-11  0.5469E+01
      2.470  0.7511E-12  0.5469E+01
      2.482  0.5564E-13  0.5469E+01
      2.494  0.0000E+00  0.5469E+01
      2.506  0.0000E+00  0.5469E+01
      2.518  0.0000E+00  0.5469E+01
      2.530  0.0000E+00  0.5469E+01
      2.542  0.0000E+00  0.5469E+01
      2.554  0.0000E+00  0.5469E+01
      2.566  0.8693E-15  0.5469E+01
      2.578  0.1565E-13  0.5469E+01
      2.590  0.2191E-12  0.5469E+01
      2.602  0.2810E-11  0.5469E+01
      2.614  0.3214E-10  0.5469E+01
      2.626  0.3281E-09  0.5469E+01