    2    2    1    1
  0.2044415E+02  0.3866975E-09  0.3866975E-09  0.3866975E-09  0.5000000E-15
   1.0000000000000000E-004
  CAR 
 unknown system                          
      8      8      8

  0.3885781E-15  0.3885781E-15  0.3885781E-15  0.1562500E-01
    1       -6.163443   1.000000
    2        5.671381   1.000000
    3        5.671396   1.000000
    4        5.671396   1.000000
    5        8.212541   0.000000
    6        8.212557   0.000000
    7        8.212557   0.000000
    8        8.797060   0.000000

  0.2500000E+00  0.3403056E-15  0.1283995E-14  0.1250000E+00
    1       -5.378006   1.000000
    2        1.770631   1.000000
    3        4.918338   1.000000
    4        4.918352   1.000000
    5        7.622545   0.000000
    6        9.151309   0.000000
    7        9.151335   0.000000
    8       12.420359   0.000000

  0.5000000E+00  0.4085937E-15  0.4085937E-15  0.6250000E-01
    1       -3.882138   1.000000
    2       -1.218658   1.000000
    3        4.481505   1.000000
    4        4.481521   1.000000
    5        7.131923   0.000000
    6        9.012735   0.000000
    7        9.012768   0.000000
    8       13.357812   0.000000

  0.2500000E+00  0.2500000E+00  0.1283995E-14  0.9375000E-01
    1       -5.100173   1.000000
    2        2.144400   1.000000
    3        3.807893   1.000000
    4        3.807902   1.000000
    5        6.808891   0.000000
    6        8.801666   0.000000
    7       11.362540   0.000000
    8       11.362553   0.000000

  0.5000000E+00  0.2500000E+00  0.4085937E-15  0.3750000E+00
    1       -3.496640   1.000000
    2       -0.668186   1.000000
    3        2.188775   1.000000
    4        3.494844   1.000000
    5        7.203467   0.000000
    6       10.103868   0.000000
    7       11.318332   0.000000
    8       11.552029   0.000000

 -0.2500000E+00  0.2500000E+00  0.1228840E-14  0.1875000E+00
    1       -4.157574   1.000000
    2        0.217918   1.000000
    3        1.980560   1.000000
    4        4.356374   1.000000
    5        8.099368   0.000000
    6       10.405800   0.000000
    7       10.770933   0.000000
    8       11.703620   0.000000

  0.5000000E+00  0.5000000E+00  0.4085937E-15  0.4687500E-01
    1       -2.090697   1.000000
    2       -2.090697   1.000000
    3        2.858419   1.000000
    4        2.858428   1.000000
    5        6.414541   0.000000
    6        6.414559   0.000000
    7       15.605348   0.000000
    8       15.605361   0.000000

 -0.2500000E+00  0.5000000E+00  0.2500000E+00  0.9375000E-01
    1       -1.935246   1.000000
    2       -1.935244   1.000000
    3        1.887747   1.000000
    4        1.887755   1.000000
    5        9.948217   0.000000
    6        9.948255   0.000000
    7       10.593235   0.000000
    8       10.593252   0.000000
