       N       E                     dE             d eps       ncg     rms          rms(c)
DAV:   1    -0.229660361025E+01   -0.22966E+01   -0.22186E+03   128   0.424E+02
DAV:   2    -0.107356701178E+02   -0.84391E+01   -0.79113E+01   208   0.536E+01
DAV:   3    -0.108324678704E+02   -0.96798E-01   -0.96798E-01   152   0.673E+00
DAV:   4    -0.108327575356E+02   -0.28967E-03   -0.28967E-03   184   0.444E-01
DAV:   5    -0.108327589975E+02   -0.14619E-05   -0.14621E-05   152   0.249E-02    0.531E+00
DAV:   6    -0.107021663684E+02    0.13059E+00   -0.82314E-02   144   0.151E+00    0.326E+00
DAV:   7    -0.106425550810E+02    0.59611E-01   -0.16258E-01   144   0.227E+00    0.191E-01
DAV:   8    -0.106440567935E+02   -0.15017E-02   -0.42251E-03   144   0.485E-01    0.687E-02
DAV:   9    -0.106443348983E+02   -0.27810E-03   -0.26775E-04   144   0.120E-01    0.551E-02
DAV:  10    -0.106443712960E+02   -0.36398E-04   -0.48004E-05   136   0.511E-02    0.903E-03
DAV:  11    -0.106443708492E+02    0.44685E-06   -0.45549E-07   192   0.516E-03    0.232E-03
DAV:  12    -0.106443711201E+02   -0.27096E-06   -0.51914E-07   144   0.569E-03    0.830E-04
DAV:  13    -0.106443710576E+02    0.62547E-07   -0.55462E-09   192   0.503E-04    0.332E-04
DAV:  14    -0.106443710478E+02    0.97854E-08   -0.42525E-10    88   0.172E-04
   1 F= -.10644371E+02 E0= -.10644371E+02  d E =-.308858E-11
