<?xml version="1.0" encoding="ISO-8859-1"?>
<modeling>
 <generator>
  <i name="program" type="string">vasp </i>
  <i name="version" type="string">5.4.4.18Apr17-6-g9f103f2a35  </i>
  <i name="subversion" type="string">(build Oct  1 2021 11:57:32) complex            parallel </i>
  <i name="platform" type="string">HPECrayEX-GNU </i>
  <i name="date" type="string">2022 01 28 </i>
  <i name="time" type="string">14:50:47 </i>
 </generator>
 <incar>
  <i type="int" name="ISTART">     1</i>
  <i type="string" name="PREC">normal</i>
  <i type="logical" name="ADDGRID"> T  </i>
  <i type="int" name="ISPIN">     1</i>
  <i type="int" name="NELM">    60</i>
  <i name="EDIFF">      0.00000001</i>
  <i type="int" name="NEDOS">  2001</i>
  <i type="logical" name="LREAL"> F  </i>
  <i type="int" name="ISMEAR">     0</i>
  <i name="SIGMA">      0.05000000</i>
  <i type="logical" name="LWAVE"> T  </i>
  <i type="logical" name="LCHARG"> T  </i>
  <i type="int" name="LORBIT">    11</i>
  <v type="int" name="KPOINT_BSE">    -1     0     0     0</v>
  <i type="int" name="NELM">    60</i>
 </incar>
 <structure name="primitive_cell" >
  <crystal>
   <varray name="basis" >
    <v>       3.86697465       0.00000000       0.00000000 </v>
    <v>       1.93348733       3.34889828       0.00000000 </v>
    <v>       1.93348733       1.11629943       3.15737158 </v>
   </varray>
   <i name="volume">     40.88829271 </i>
   <varray name="rec_basis" >
    <v>       0.25860009      -0.14930283      -0.10557305 </v>
    <v>       0.00000000       0.29860567      -0.10557305 </v>
    <v>       0.00000000       0.00000000       0.31671914 </v>
   </varray>
  </crystal>
  <varray name="positions" >
   <v>       0.25000000       0.25000000       0.25000000 </v>
   <v>       0.00000000       0.00000000       0.00000000 </v>
  </varray>
 </structure>
 <varray name="primitive_index" >
  <v type="int" >        1 </v>
  <v type="int" >        2 </v>
 </varray>
 <kpoints>
  <generation param="Gamma">
   <v type="int" name="divisions">       4        4        4 </v>
   <v name="usershift">      0.00000000       0.00000000       0.00000000 </v>
   <v name="genvec1">      0.25000000       0.00000000       0.00000000 </v>
   <v name="genvec2">      0.00000000       0.25000000      -0.00000000 </v>
   <v name="genvec3">      0.00000000       0.00000000       0.25000000 </v>
   <v name="shift">      0.00000000       0.00000000       0.00000000 </v>
  </generation>
  <varray name="kpointlist" >
   <v>       0.00000000       0.00000000       0.00000000 </v>
   <v>       0.25000000       0.00000000       0.00000000 </v>
   <v>       0.50000000       0.00000000       0.00000000 </v>
   <v>       0.25000000       0.25000000       0.00000000 </v>
   <v>       0.50000000       0.25000000       0.00000000 </v>
   <v>      -0.25000000       0.25000000       0.00000000 </v>
   <v>       0.50000000       0.50000000       0.00000000 </v>
   <v>      -0.25000000       0.50000000       0.25000000 </v>
  </varray>
  <varray name="weights" >
   <v>       0.01562500 </v>
   <v>       0.12500000 </v>
   <v>       0.06250000 </v>
   <v>       0.09375000 </v>
   <v>       0.37500000 </v>
   <v>       0.18750000 </v>
   <v>       0.04687500 </v>
   <v>       0.09375000 </v>
  </varray>
 </kpoints>
 <parameters>
  <separator name="general" >
   <i type="string" name="SYSTEM">unknown system</i>
   <i type="logical" name="LCOMPAT"> F  </i>
  </separator>
  <separator name="electronic" >
   <i type="string" name="PREC">normal</i>
   <i name="ENMAX">    245.34500000</i>
   <i name="ENAUG">    322.06900000</i>
   <i name="EDIFF">      0.00000001</i>
   <i type="int" name="IALGO">    38</i>
   <i type="int" name="IWAVPR">    10</i>
   <i type="int" name="NBANDS">     8</i>
   <i name="NELECT">      8.00000000</i>
   <i type="int" name="TURBO">     0</i>
   <i type="int" name="IRESTART">     0</i>
   <i type="int" name="NREBOOT">     0</i>
   <i type="int" name="NMIN">     0</i>
   <i name="EREF">      0.00000000</i>
   <separator name="electronic smearing" >
    <i type="int" name="ISMEAR">     0</i>
    <i name="SIGMA">      0.05000000</i>
    <i name="KSPACING">      0.50000000</i>
    <i type="logical" name="KGAMMA"> T  </i>
   </separator>
   <separator name="electronic projectors" >
    <i type="logical" name="LREAL"> F  </i>
    <v name="ROPT">      0.00000000</v>
    <i type="int" name="LMAXPAW">  -100</i>
    <i type="int" name="LMAXMIX">     2</i>
    <i type="logical" name="NLSPLINE"> F  </i>
   </separator>
   <separator name="electronic startup" >
    <i type="int" name="ISTART">     0</i>
    <i type="int" name="ICHARG">     2</i>
    <i type="int" name="INIWAV">     1</i>
   </separator>
   <separator name="electronic spin" >
    <i type="int" name="ISPIN">     1</i>
    <i type="logical" name="LNONCOLLINEAR"> F  </i>
    <v name="MAGMOM">      1.00000000      1.00000000</v>
    <i name="NUPDOWN">     -1.00000000</i>
    <i type="logical" name="LSORBIT"> F  </i>
    <v name="SAXIS">      0.00000000      0.00000000      1.00000000</v>
    <i type="logical" name="LSPIRAL"> F  </i>
    <v name="QSPIRAL">      0.00000000      0.00000000      0.00000000</v>
    <i type="logical" name="LZEROZ"> F  </i>
   </separator>
   <separator name="electronic exchange-correlation" >
    <i type="logical" name="LASPH"> F  </i>
    <i type="logical" name="LMETAGGA"> F  </i>
   </separator>
   <separator name="electronic convergence" >
    <i type="int" name="NELM">    60</i>
    <i type="int" name="NELMDL">     0</i>
    <i type="int" name="NELMIN">     2</i>
    <i name="ENINI">    245.34500000</i>
    <separator name="electronic convergence detail" >
     <i type="logical" name="LDIAG"> T  </i>
     <i type="logical" name="LSUBROT"> F  </i>
     <i name="WEIMIN">      0.00000000</i>
     <i name="EBREAK">      0.00000000</i>
     <i name="DEPER">      0.30000000</i>
     <i type="int" name="NRMM">     4</i>
     <i name="TIME">      0.40000000</i>
    </separator>
   </separator>
   <separator name="electronic mixer" >
    <i name="AMIX">      0.40000000</i>
    <i name="BMIX">      1.00000000</i>
    <i name="AMIN">      0.10000000</i>
    <i name="AMIX_MAG">      1.60000000</i>
    <i name="BMIX_MAG">      1.00000000</i>
    <separator name="electronic mixer details" >
     <i type="int" name="IMIX">     4</i>
     <i type="logical" name="MIXFIRST"> F  </i>
     <i type="int" name="MAXMIX">   -45</i>
     <i name="WC">    100.00000000</i>
     <i type="int" name="INIMIX">     1</i>
     <i type="int" name="MIXPRE">     1</i>
     <i type="int" name="MREMOVE">     5</i>
    </separator>
   </separator>
   <separator name="electronic dipolcorrection" >
    <i type="logical" name="LDIPOL"> F  </i>
    <i type="logical" name="LMONO"> F  </i>
    <i type="int" name="IDIPOL">     0</i>
    <i name="EPSILON">      1.00000000</i>
    <v name="DIPOL">   -100.00000000   -100.00000000   -100.00000000</v>
    <i name="EFIELD">      0.00000000</i>
   </separator>
  </separator>
  <separator name="grids" >
   <i type="int" name="NGX">    16</i>
   <i type="int" name="NGY">    16</i>
   <i type="int" name="NGZ">    16</i>
   <i type="int" name="NGXF">    32</i>
   <i type="int" name="NGYF">    32</i>
   <i type="int" name="NGZF">    32</i>
   <i type="logical" name="ADDGRID"> T  </i>
  </separator>
  <separator name="ionic" >
   <i type="int" name="NSW">     0</i>
   <i type="int" name="IBRION">    -1</i>
   <i type="int" name="MDALGO">     0</i>
   <i type="int" name="ISIF">     2</i>
   <i name="PSTRESS">      0.00000000</i>
   <i name="EDIFFG">      0.00000010</i>
   <i type="int" name="NFREE">     0</i>
   <i name="POTIM">      0.50000000</i>
   <i name="SMASS">     -3.00000000</i>
   <i name="SCALEE">      1.00000000</i>
  </separator>
  <separator name="ionic md" >
   <i name="TEBEG">      0.00010000</i>
   <i name="TEEND">      0.00010000</i>
   <i type="int" name="NBLOCK">     1</i>
   <i type="int" name="KBLOCK">     1</i>
   <i type="int" name="NPACO">   256</i>
   <i name="APACO">     16.00000000</i>
  </separator>
  <separator name="symmetry" >
   <i type="int" name="ISYM">     2</i>
   <i name="SYMPREC">      0.00001000</i>
  </separator>
  <separator name="dos" >
   <i type="int" name="LORBIT">    11</i>
   <v name="RWIGS">     -1.00000000</v>
   <i type="int" name="NEDOS">  2001</i>
   <i name="EMIN">     10.00000000</i>
   <i name="EMAX">    -10.00000000</i>
   <i name="EFERMI">      0.00000000</i>
  </separator>
  <separator name="writing" >
   <i type="int" name="NWRITE">     2</i>
   <i type="logical" name="LWAVE"> T  </i>
   <i type="logical" name="LDOWNSAMPLE"> F  </i>
   <i type="logical" name="LCHARG"> T  </i>
   <i type="logical" name="LPARD"> F  </i>
   <i type="logical" name="LVTOT"> F  </i>
   <i type="logical" name="LVHAR"> F  </i>
   <i type="logical" name="LELF"> F  </i>
   <i type="logical" name="LOPTICS"> F  </i>
   <v name="STM">      0.00000000      0.00000000      0.00000000      0.00000000      0.00000000      0.00000000      0.00000000</v>
  </separator>
  <separator name="performance" >
   <i type="int" name="NPAR">     4</i>
   <i type="int" name="NSIM">     4</i>
   <i type="int" name="NBLK">    -1</i>
   <i type="logical" name="LPLANE"> T  </i>
   <i type="logical" name="LSCALAPACK"> T  </i>
   <i type="logical" name="LSCAAWARE"> T  </i>
   <i type="logical" name="LSCALU"> F  </i>
   <i type="logical" name="LASYNC"> F  </i>
   <i type="logical" name="LORBITALREAL"> F  </i>
  </separator>
  <separator name="miscellaneous" >
   <i type="int" name="IDIOT">     3</i>
   <i type="int" name="ISPECIAL">     0</i>
   <i type="logical" name="LMUSIC"> F  </i>
   <v name="POMASS">     28.08500000</v>
   <v name="DARWINR">      0.00000000</v>
   <v name="DARWINV">      1.00000000</v>
   <i type="logical" name="LCORR"> T  </i>
  </separator>
  <i type="logical" name="GGA_COMPAT"> T  </i>
  <i type="logical" name="LBERRY"> F  </i>
  <i type="int" name="ICORELEVEL">     0</i>
  <i type="logical" name="LDAU"> F  </i>
  <i type="int" name="I_CONSTRAINED_M">     0</i>
  <separator name="electronic exchange-correlation" >
   <i type="string" name="GGA">--</i>
   <i type="int" name="VOSKOWN">     0</i>
   <i type="logical" name="LHFCALC"> F  </i>
   <i type="string" name="PRECFOCK"></i>
   <i type="logical" name="LSYMGRAD"> F  </i>
   <i type="logical" name="LHFONE"> F  </i>
   <i type="logical" name="LRHFCALC"> F  </i>
   <i type="logical" name="LTHOMAS"> F  </i>
   <i type="logical" name="LMODELHF"> F  </i>
   <i name="ENCUT4O">     -1.00000000</i>
   <i type="int" name="EXXOEP">     0</i>
   <i type="int" name="FOURORBIT">     0</i>
   <i name="AEXX">      0.00000000</i>
   <i name="HFALPHA">      0.00000000</i>
   <i name="MCALPHA">      0.00000000</i>
   <i name="ALDAX">      1.00000000</i>
   <i name="AGGAX">      1.00000000</i>
   <i name="ALDAC">      1.00000000</i>
   <i name="AGGAC">      1.00000000</i>
   <i type="int" name="NKREDX">     1</i>
   <i type="int" name="NKREDY">     1</i>
   <i type="int" name="NKREDZ">     1</i>
   <i type="logical" name="SHIFTRED"> F  </i>
   <i type="logical" name="ODDONLY"> F  </i>
   <i type="logical" name="EVENONLY"> F  </i>
   <i type="int" name="LMAXFOCK">     0</i>
   <i type="int" name="NMAXFOCKAE">     0</i>
   <i type="logical" name="LFOCKAEDFT"> F  </i>
   <i name="HFSCREEN">      0.00000000</i>
   <i name="HFSCREENC">      0.00000000</i>
   <i type="int" name="NBANDSGWLOW">     0</i>
  </separator>
  <separator name="vdW DFT" >
   <i type="logical" name="LUSE_VDW"> F  </i>
   <i name="Zab_VDW">     -0.84910000</i>
   <i name="PARAM1">      0.12340000</i>
   <i name="PARAM2">      1.00000000</i>
   <i name="PARAM3">      0.00000000</i>
  </separator>
  <separator name="model GW" >
   <i type="int" name="MODEL_GW">     0</i>
   <i name="MODEL_EPS0">     12.26648781</i>
   <i name="MODEL_ALPHA">      1.00000000</i>
  </separator>
  <separator name="linear response parameters" >
   <i type="logical" name="LEPSILON"> F  </i>
   <i type="logical" name="LRPA"> F  </i>
   <i type="logical" name="LNABLA"> F  </i>
   <i type="logical" name="LVEL"> F  </i>
   <i type="int" name="KINTER">     0</i>
   <i name="CSHIFT">      0.10000000</i>
   <i name="OMEGAMAX">     -1.00000000</i>
   <i name="DEG_THRESHOLD">      0.00200000</i>
   <i name="RTIME">     -0.10000000</i>
   <i name="WPLASMAI">      0.00000000</i>
   <v name="DFIELD">      0.00000000      0.00000000      0.00000000</v>
   <v name="WPLASMA">      0.00000000      0.00000000      0.00000000      0.00000000      0.00000000      0.00000000      0.00000000      0.00000000      0.00000000</v>
  </separator>
  <separator name="orbital magnetization" >
   <i type="logical" name="NUCIND"> F  </i>
   <v name="MAGPOS">      0.00000000      0.00000000      0.00000000</v>
   <i type="logical" name="LNICSALL"> T  </i>
   <i type="logical" name="ORBITALMAG"> F  </i>
   <i type="logical" name="LMAGBLOCH"> F  </i>
   <i type="logical" name="LCHIMAG"> F  </i>
   <i type="logical" name="LGAUGE"> T  </i>
   <i type="int" name="MAGATOM">     0</i>
   <v name="MAGDIPOL">      0.00000000      0.00000000      0.00000000</v>
   <v name="AVECCONST">      0.00000000      0.00000000      0.00000000</v>
  </separator>
  <separator name="response functions" >
   <i type="logical" name="LADDER"> F  </i>
   <i type="logical" name="LRPAFORCE"> F  </i>
   <i type="logical" name="LFXC"> F  </i>
   <i type="logical" name="LHARTREE"> T  </i>
   <i type="int" name="IBSE">     0</i>
   <v type="int" name="KPOINT">    -1     0     0     0</v>
   <i type="logical" name="LTCTE"> F  </i>
   <i type="logical" name="LTETE"> F  </i>
   <i type="logical" name="LTRIPLET"> F  </i>
   <i type="logical" name="LFXCEPS"> F  </i>
   <i type="logical" name="LFXHEG"> F  </i>
   <i type="int" name="NATURALO">     2</i>
   <i type="logical" name="L2ORDER"> F  </i>
   <i type="logical" name="LMP2LT"> F  </i>
   <i type="logical" name="LUSEW"> F  </i>
   <i name="ENCUTGW">     -2.00000000</i>
   <i name="ENCUTGWSOFT">     -2.00000000</i>
   <i name="ENCUTLF">     -1.00000000</i>
   <i type="int" name="LMAXMP2">    -1</i>
   <i name="SCISSOR">      0.00000000</i>
   <i type="int" name="NOMEGA">     0</i>
   <i type="int" name="NOMEGAR">     0</i>
   <i type="int" name="NBANDSGW">    -1</i>
   <i type="int" name="NBANDSO">    -1</i>
   <i type="int" name="NBANDSV">    -1</i>
   <i type="int" name="NELM">    60</i>
   <i type="int" name="NELMHF">     1</i>
   <i type="int" name="DIM">     3</i>
   <i type="int" name="ANTIRES">     0</i>
   <i name="OMEGAMAX">    -30.00000000</i>
   <i name="OMEGAMIN">    -30.00000000</i>
   <i name="OMEGATL">   -200.00000000</i>
   <i type="int" name="OMEGAGRID">   140</i>
   <i name="CSHIFT">     -0.10000000</i>
   <i type="logical" name="SELFENERGY"> F  </i>
   <i type="logical" name="LSPECTRAL"> F  </i>
   <i type="logical" name="LSPECTRALGW"> F  </i>
   <i type="logical" name="LSINGLES"> F  </i>
   <i type="logical" name="LFERMIGW"> F  </i>
   <i type="logical" name="ODDONLYGW"> F  </i>
   <i type="logical" name="EVENONLYGW"> F  </i>
   <i type="int" name="NKREDLFX">     1</i>
   <i type="int" name="NKREDLFY">     1</i>
   <i type="int" name="NKREDLFZ">     1</i>
   <i type="int" name="MAXMEM">  2800</i>
   <i type="int" name="TELESCOPE">     0</i>
   <i type="int" name="TAUPAR">     1</i>
   <i type="int" name="OMEGAPAR">    -1</i>
   <i name="LAMBDA">      1.00000000</i>
  </separator>
  <separator name="External order field" >
   <i name="OFIELD_KAPPA">      0.00000000</i>
   <v name="OFIELD_K">      0.00000000      0.00000000      0.00000000</v>
   <i name="OFIELD_Q6_NEAR">      0.00000000</i>
   <i name="OFIELD_Q6_FAR">      0.00000000</i>
   <i name="OFIELD_A">      0.00000000</i>
  </separator>
 </parameters>
 <atominfo>
  <atoms>       2 </atoms>
  <types>       1 </types>
  <array name="atoms" >
   <dimension dim="1">ion</dimension>
   <field type="string">element</field>
   <field type="int">atomtype</field>
   <set>
    <rc><c>Si</c><c>   1</c></rc>
    <rc><c>Si</c><c>   1</c></rc>
   </set>
  </array>
  <array name="atomtypes" >
   <dimension dim="1">type</dimension>
   <field type="int">atomspertype</field>
   <field type="string">element</field>
   <field>mass</field>
   <field>valence</field>
   <field type="string">pseudopotential</field>
   <set>
    <rc><c>   2</c><c>Si</c><c>     28.08500000</c><c>      4.00000000</c><c>  PAW_PBE Si 05Jan2001                  </c></rc>
   </set>
  </array>
 </atominfo>
 <structure name="initialpos" >
  <crystal>
   <varray name="basis" >
    <v>       3.86697465       0.00000000       0.00000000 </v>
    <v>       1.93348733       3.34889828       0.00000000 </v>
    <v>       1.93348733       1.11629943       3.15737158 </v>
   </varray>
   <i name="volume">     40.88829271 </i>
   <varray name="rec_basis" >
    <v>       0.25860009      -0.14930283      -0.10557305 </v>
    <v>       0.00000000       0.29860567      -0.10557305 </v>
    <v>       0.00000000       0.00000000       0.31671914 </v>
   </varray>
  </crystal>
  <varray name="positions" >
   <v>       0.25000000       0.25000000       0.25000000 </v>
   <v>       0.00000000       0.00000000       0.00000000 </v>
  </varray>
 </structure>
 <calculation>
  <scstep>
   <time name="dav">    0.01    0.01</time>
   <time name="total">    0.03    0.03</time>
   <energy>
    <i name="alphaZ">      3.29318038 </i>
    <i name="ewald">   -226.94490232 </i>
    <i name="hartreedc">    -11.32338903 </i>
    <i name="XCdc">    -18.68511948 </i>
    <i name="pawpsdc">    176.24759923 </i>
    <i name="pawaedc">   -141.06103558 </i>
    <i name="eentropy">     -0.00000000 </i>
    <i name="bandstr">     10.05449088 </i>
    <i name="atom">    206.12257231 </i>
    <i name="e_fr_energy">     -2.29660361 </i>
    <i name="e_wo_entrp">     -2.29660361 </i>
    <i name="e_0_energy">     -2.29660361 </i>
   </energy>
  </scstep>
  <scstep>
   <time name="dav">    0.02    0.04</time>
   <time name="total">    0.02    0.04</time>
   <energy>
    <i name="e_fr_energy">    -10.73567012 </i>
    <i name="e_wo_entrp">    -10.73567012 </i>
    <i name="e_0_energy">    -10.73567012 </i>
   </energy>
  </scstep>
  <scstep>
   <time name="dav">    0.02    0.04</time>
   <time name="total">    0.02    0.04</time>
   <energy>
    <i name="e_fr_energy">    -10.83246787 </i>
    <i name="e_wo_entrp">    -10.83246787 </i>
    <i name="e_0_energy">    -10.83246787 </i>
   </energy>
  </scstep>
  <scstep>
   <time name="dav">    0.02    0.04</time>
   <time name="total">    0.02    0.04</time>
   <energy>
    <i name="e_fr_energy">    -10.83275754 </i>
    <i name="e_wo_entrp">    -10.83275754 </i>
    <i name="e_0_energy">    -10.83275754 </i>
   </energy>
  </scstep>
  <scstep>
   <time name="dav">    0.02    0.03</time>
   <time name="total">    0.02    0.04</time>
   <energy>
    <i name="e_fr_energy">    -10.83275900 </i>
    <i name="e_wo_entrp">    -10.83275900 </i>
    <i name="e_0_energy">    -10.83275900 </i>
   </energy>
  </scstep>
  <scstep>
   <time name="dav">    0.01    0.01</time>
   <time name="total">    0.02    0.04</time>
   <energy>
    <i name="e_fr_energy">    -10.70216637 </i>
    <i name="e_wo_entrp">    -10.70216637 </i>
    <i name="e_0_energy">    -10.70216637 </i>
   </energy>
  </scstep>
  <scstep>
   <time name="dav">    0.01    0.01</time>
   <time name="total">    0.02    0.04</time>
   <energy>
    <i name="e_fr_energy">    -10.64255508 </i>
    <i name="e_wo_entrp">    -10.64255508 </i>
    <i name="e_0_energy">    -10.64255508 </i>
   </energy>
  </scstep>
  <scstep>
   <time name="dav">    0.01    0.01</time>
   <time name="total">    0.02    0.04</time>
   <energy>
    <i name="e_fr_energy">    -10.64405679 </i>
    <i name="e_wo_entrp">    -10.64405679 </i>
    <i name="e_0_energy">    -10.64405679 </i>
   </energy>
  </scstep>
  <scstep>
   <time name="dav">    0.01    0.01</time>
   <time name="total">    0.02    0.04</time>
   <energy>
    <i name="e_fr_energy">    -10.64433490 </i>
    <i name="e_wo_entrp">    -10.64433490 </i>
    <i name="e_0_energy">    -10.64433490 </i>
   </energy>
  </scstep>
  <scstep>
   <time name="dav">    0.01    0.01</time>
   <time name="total">    0.02    0.03</time>
   <energy>
    <i name="e_fr_energy">    -10.64437130 </i>
    <i name="e_wo_entrp">    -10.64437130 </i>
    <i name="e_0_energy">    -10.64437130 </i>
   </energy>
  </scstep>
  <scstep>
   <time name="dav">    0.01    0.01</time>
   <time name="total">    0.02    0.04</time>
   <energy>
    <i name="e_fr_energy">    -10.64437085 </i>
    <i name="e_wo_entrp">    -10.64437085 </i>
    <i name="e_0_energy">    -10.64437085 </i>
   </energy>
  </scstep>
  <scstep>
   <time name="dav">    0.01    0.01</time>
   <time name="total">    0.02    0.04</time>
   <energy>
    <i name="e_fr_energy">    -10.64437112 </i>
    <i name="e_wo_entrp">    -10.64437112 </i>
    <i name="e_0_energy">    -10.64437112 </i>
   </energy>
  </scstep>
  <scstep>
   <time name="dav">    0.01    0.01</time>
   <time name="total">    0.02    0.04</time>
   <energy>
    <i name="e_fr_energy">    -10.64437106 </i>
    <i name="e_wo_entrp">    -10.64437106 </i>
    <i name="e_0_energy">    -10.64437106 </i>
   </energy>
  </scstep>
  <scstep>
   <time name="dav">    0.00    0.00</time>
   <time name="total">    0.02    0.03</time>
   <energy>
    <i name="alphaZ">      3.29318038 </i>
    <i name="ewald">   -226.94490232 </i>
    <i name="hartreedc">    -15.48661520 </i>
    <i name="XCdc">    -18.01181478 </i>
    <i name="pawpsdc">    994.43699820 </i>
    <i name="pawaedc">   -959.47094995 </i>
    <i name="eentropy">     -0.00000000 </i>
    <i name="bandstr">      5.41716032 </i>
    <i name="atom">    206.12257231 </i>
    <i name="e_fr_energy">    -10.64437105 </i>
    <i name="e_wo_entrp">    -10.64437105 </i>
    <i name="e_0_energy">    -10.64437105 </i>
   </energy>
  </scstep>
  <structure>
   <crystal>
    <varray name="basis" >
     <v>       3.86697465       0.00000000       0.00000000 </v>
     <v>       1.93348733       3.34889828       0.00000000 </v>
     <v>       1.93348733       1.11629943       3.15737158 </v>
    </varray>
    <i name="volume">     40.88829271 </i>
    <varray name="rec_basis" >
     <v>       0.25860009      -0.14930283      -0.10557305 </v>
     <v>       0.00000000       0.29860567      -0.10557305 </v>
     <v>       0.00000000       0.00000000       0.31671914 </v>
    </varray>
   </crystal>
   <varray name="positions" >
    <v>       0.25000000       0.25000000       0.25000000 </v>
    <v>       0.00000000       0.00000000       0.00000000 </v>
   </varray>
  </structure>
  <varray name="forces" >
   <v>      -0.00000000      -0.00000000      -0.00000000 </v>
   <v>       0.00000000       0.00000000       0.00000000 </v>
  </varray>
  <varray name="stress" >
   <v>       3.91958802       0.00000001       0.00000000 </v>
   <v>       0.00000001       3.91958801       0.00000000 </v>
   <v>       0.00000000       0.00000000       3.91958802 </v>
  </varray>
  <energy>
   <i name="e_fr_energy">    -10.64437105 </i>
   <i name="e_wo_entrp">    -10.64437105 </i>
   <i name="e_0_energy">     -0.00000000 </i>
  </energy>
  <time name="totalsc">    0.39    0.69</time>
  <eigenvalues>
   <array>
    <dimension dim="1">band</dimension>
    <dimension dim="2">kpoint</dimension>
    <dimension dim="3">spin</dimension>
    <field>eigene</field>
    <field>occ</field>
    <set>
     <set comment="spin 1">
      <set comment="kpoint 1">
       <r>   -6.1634    1.0000 </r>
       <r>    5.6714    1.0000 </r>
       <r>    5.6714    1.0000 </r>
       <r>    5.6714    1.0000 </r>
       <r>    8.2125    0.0000 </r>
       <r>    8.2126    0.0000 </r>
       <r>    8.2126    0.0000 </r>
       <r>    8.7971    0.0000 </r>
      </set>
      <set comment="kpoint 2">
       <r>   -5.3780    1.0000 </r>
       <r>    1.7706    1.0000 </r>
       <r>    4.9183    1.0000 </r>
       <r>    4.9184    1.0000 </r>
       <r>    7.6225    0.0000 </r>
       <r>    9.1513    0.0000 </r>
       <r>    9.1513    0.0000 </r>
       <r>   12.4204    0.0000 </r>
      </set>
      <set comment="kpoint 3">
       <r>   -3.8821    1.0000 </r>
       <r>   -1.2187    1.0000 </r>
       <r>    4.4815    1.0000 </r>
       <r>    4.4815    1.0000 </r>
       <r>    7.1319    0.0000 </r>
       <r>    9.0127    0.0000 </r>
       <r>    9.0128    0.0000 </r>
       <r>   13.3578    0.0000 </r>
      </set>
      <set comment="kpoint 4">
       <r>   -5.1002    1.0000 </r>
       <r>    2.1444    1.0000 </r>
       <r>    3.8079    1.0000 </r>
       <r>    3.8079    1.0000 </r>
       <r>    6.8089    0.0000 </r>
       <r>    8.8017    0.0000 </r>
       <r>   11.3625    0.0000 </r>
       <r>   11.3626    0.0000 </r>
      </set>
      <set comment="kpoint 5">
       <r>   -3.4966    1.0000 </r>
       <r>   -0.6682    1.0000 </r>
       <r>    2.1888    1.0000 </r>
       <r>    3.4948    1.0000 </r>
       <r>    7.2035    0.0000 </r>
       <r>   10.1039    0.0000 </r>
       <r>   11.3183    0.0000 </r>
       <r>   11.5520    0.0000 </r>
      </set>
      <set comment="kpoint 6">
       <r>   -4.1576    1.0000 </r>
       <r>    0.2179    1.0000 </r>
       <r>    1.9806    1.0000 </r>
       <r>    4.3564    1.0000 </r>
       <r>    8.0994    0.0000 </r>
       <r>   10.4058    0.0000 </r>
       <r>   10.7709    0.0000 </r>
       <r>   11.7036    0.0000 </r>
      </set>
      <set comment="kpoint 7">
       <r>   -2.0907    1.0000 </r>
       <r>   -2.0907    1.0000 </r>
       <r>    2.8584    1.0000 </r>
       <r>    2.8584    1.0000 </r>
       <r>    6.4145    0.0000 </r>
       <r>    6.4146    0.0000 </r>
       <r>   15.6053    0.0000 </r>
       <r>   15.6054    0.0000 </r>
      </set>
      <set comment="kpoint 8">
       <r>   -1.9352    1.0000 </r>
       <r>   -1.9352    1.0000 </r>
       <r>    1.8877    1.0000 </r>
       <r>    1.8878    1.0000 </r>
       <r>    9.9482    0.0000 </r>
       <r>    9.9483    0.0000 </r>
       <r>   10.5932    0.0000 </r>
       <r>   10.5933    0.0000 </r>
      </set>
     </set>
    </set>
   </array>
  </eigenvalues>
  <separator name="orbital magnetization" >
   <v name="MAGDIPOLOUT">      0.00000000      0.00000000      0.00000000</v>
  </separator>
  <dos>
   <i name="efermi">      5.89429772 </i>
   <total>
    <array>
     <dimension dim="1">gridpoints</dimension>
     <dimension dim="2">spin</dimension>
     <field>energy</field>
     <field>total</field>
     <field>integrated</field>
     <set>
      <set comment="spin 1">
       <r>    -7.2519     0.0000     0.0000 </r>
       <r>    -7.2399     0.0000     0.0000 </r>
       <r>    -7.2279     0.0000     0.0000 </r>
       <r>    -7.2160     0.0000     0.0000 </r>
       <r>    -7.2040     0.0000     0.0000 </r>
       <r>    -7.1920     0.0000     0.0000 </r>
       <r>    -7.1800     0.0000     0.0000 </r>
       <r>    -7.1681     0.0000     0.0000 </r>
       <r>    -7.1561     0.0000     0.0000 </r>
       <r>    -7.1441     0.0000     0.0000 </r>
       <r>    -7.1322     0.0000     0.0000 </r>
       <r>    -7.1202     0.0000     0.0000 </r>
       <r>    -7.1082     0.0000     0.0000 </r>
       <r>    -7.0962     0.0000     0.0000 </r>
       <r>    -7.0843     0.0000     0.0000 </r>
       <r>    -7.0723     0.0000     0.0000 </r>
       <r>    -7.0603     0.0000     0.0000 </r>
       <r>    -7.0483     0.0000     0.0000 </r>
       <r>    -7.0364     0.0000     0.0000 </r>
       <r>    -7.0244     0.0000     0.0000 </r>
       <r>    -7.0124     0.0000     0.0000 </r>
       <r>    -7.0005     0.0000     0.0000 </r>
       <r>    -6.9885     0.0000     0.0000 </r>
       <r>    -6.9765     0.0000     0.0000 </r>
       <r>    -6.9645     0.0000     0.0000 </r>
       <r>    -6.9526     0.0000     0.0000 </r>
       <r>    -6.9406     0.0000     0.0000 </r>
       <r>    -6.9286     0.0000     0.0000 </r>
       <r>    -6.9166     0.0000     0.0000 </r>
       <r>    -6.9047     0.0000     0.0000 </r>
       <r>    -6.8927     0.0000     0.0000 </r>
       <r>    -6.8807     0.0000     0.0000 </r>
       <r>    -6.8688     0.0000     0.0000 </r>
       <r>    -6.8568     0.0000     0.0000 </r>
       <r>    -6.8448     0.0000     0.0000 </r>
       <r>    -6.8328     0.0000     0.0000 </r>
       <r>    -6.8209     0.0000     0.0000 </r>
       <r>    -6.8089     0.0000     0.0000 </r>
       <r>    -6.7969     0.0000     0.0000 </r>
       <r>    -6.7849     0.0000     0.0000 </r>
       <r>    -6.7730     0.0000     0.0000 </r>
       <r>    -6.7610     0.0000     0.0000 </r>
       <r>    -6.7490     0.0000     0.0000 </r>
       <r>    -6.7371     0.0000     0.0000 </r>
       <r>    -6.7251     0.0000     0.0000 </r>
       <r>    -6.7131     0.0000     0.0000 </r>
       <r>    -6.7011     0.0000     0.0000 </r>
       <r>    -6.6892     0.0000     0.0000 </r>
       <r>    -6.6772     0.0000     0.0000 </r>
       <r>    -6.6652     0.0000     0.0000 </r>
       <r>    -6.6532     0.0000     0.0000 </r>
       <r>    -6.6413     0.0000     0.0000 </r>
       <r>    -6.6293     0.0000     0.0000 </r>
       <r>    -6.6173     0.0000     0.0000 </r>
       <r>    -6.6053     0.0000     0.0000 </r>
       <r>    -6.5934     0.0000     0.0000 </r>
       <r>    -6.5814     0.0000     0.0000 </r>
       <r>    -6.5694     0.0000     0.0000 </r>
       <r>    -6.5575     0.0000     0.0000 </r>
       <r>    -6.5455     0.0000     0.0000 </r>
       <r>    -6.5335     0.0000     0.0000 </r>
       <r>    -6.5215     0.0000     0.0000 </r>
       <r>    -6.5096     0.0000     0.0000 </r>
       <r>    -6.4976     0.0000     0.0000 </r>
       <r>    -6.4856     0.0000     0.0000 </r>
       <r>    -6.4736     0.0000     0.0000 </r>
       <r>    -6.4617     0.0000     0.0000 </r>
       <r>    -6.4497     0.0000     0.0000 </r>
       <r>    -6.4377     0.0000     0.0000 </r>
       <r>    -6.4258     0.0000     0.0000 </r>
       <r>    -6.4138     0.0000     0.0000 </r>
       <r>    -6.4018     0.0000     0.0000 </r>
       <r>    -6.3898     0.0000     0.0000 </r>
       <r>    -6.3779     0.0000     0.0000 </r>
       <r>    -6.3659     0.0000     0.0000 </r>
       <r>    -6.3539     0.0000     0.0000 </r>
       <r>    -6.3419     0.0000     0.0000 </r>
       <r>    -6.3300     0.0000     0.0000 </r>
       <r>    -6.3180     0.0000     0.0000 </r>
       <r>    -6.3060     0.0001     0.0000 </r>
       <r>    -6.2941     0.0002     0.0000 </r>
       <r>    -6.2821     0.0007     0.0000 </r>
       <r>    -6.2701     0.0023     0.0000 </r>
       <r>    -6.2581     0.0063     0.0001 </r>
       <r>    -6.2462     0.0155     0.0003 </r>
       <r>    -6.2342     0.0340     0.0007 </r>
       <r>    -6.2222     0.0666     0.0015 </r>
       <r>    -6.2102     0.1163     0.0029 </r>
       <r>    -6.1983     0.1814     0.0051 </r>
       <r>    -6.1863     0.2524     0.0081 </r>
       <r>    -6.1743     0.3135     0.0118 </r>
       <r>    -6.1624     0.3476     0.0160 </r>
       <r>    -6.1504     0.3440     0.0201 </r>
       <r>    -6.1384     0.3040     0.0238 </r>
       <r>    -6.1264     0.2397     0.0266 </r>
       <r>    -6.1145     0.1687     0.0287 </r>
       <r>    -6.1025     0.1060     0.0299 </r>
       <r>    -6.0905     0.0595     0.0306 </r>
       <r>    -6.0785     0.0298     0.0310 </r>
       <r>    -6.0666     0.0133     0.0312 </r>
       <r>    -6.0546     0.0053     0.0312 </r>
       <r>    -6.0426     0.0019     0.0312 </r>
       <r>    -6.0307     0.0006     0.0312 </r>
       <r>    -6.0187     0.0002     0.0312 </r>
       <r>    -6.0067     0.0000     0.0312 </r>
       <r>    -5.9947     0.0000     0.0312 </r>
       <r>    -5.9828     0.0000     0.0312 </r>
       <r>    -5.9708     0.0000     0.0312 </r>
       <r>    -5.9588     0.0000     0.0312 </r>
       <r>    -5.9468     0.0000     0.0312 </r>
       <r>    -5.9349     0.0000     0.0312 </r>
       <r>    -5.9229     0.0000     0.0312 </r>
       <r>    -5.9109     0.0000     0.0312 </r>
       <r>    -5.8990     0.0000     0.0312 </r>
       <r>    -5.8870     0.0000     0.0312 </r>
       <r>    -5.8750     0.0000     0.0312 </r>
       <r>    -5.8630     0.0000     0.0312 </r>
       <r>    -5.8511     0.0000     0.0312 </r>
       <r>    -5.8391     0.0000     0.0312 </r>
       <r>    -5.8271     0.0000     0.0312 </r>
       <r>    -5.8151     0.0000     0.0312 </r>
       <r>    -5.8032     0.0000     0.0312 </r>
       <r>    -5.7912     0.0000     0.0312 </r>
       <r>    -5.7792     0.0000     0.0312 </r>
       <r>    -5.7673     0.0000     0.0312 </r>
       <r>    -5.7553     0.0000     0.0312 </r>
       <r>    -5.7433     0.0000     0.0312 </r>
       <r>    -5.7313     0.0000     0.0312 </r>
       <r>    -5.7194     0.0000     0.0312 </r>
       <r>    -5.7074     0.0000     0.0312 </r>
       <r>    -5.6954     0.0000     0.0312 </r>
       <r>    -5.6834     0.0000     0.0312 </r>
       <r>    -5.6715     0.0000     0.0313 </r>
       <r>    -5.6595     0.0000     0.0313 </r>
       <r>    -5.6475     0.0000     0.0313 </r>
       <r>    -5.6355     0.0000     0.0313 </r>
       <r>    -5.6236     0.0000     0.0313 </r>
       <r>    -5.6116     0.0000     0.0313 </r>
       <r>    -5.5996     0.0000     0.0313 </r>
       <r>    -5.5877     0.0000     0.0313 </r>
       <r>    -5.5757     0.0000     0.0313 </r>
       <r>    -5.5637     0.0000     0.0313 </r>
       <r>    -5.5517     0.0000     0.0313 </r>
       <r>    -5.5398     0.0000     0.0313 </r>
       <r>    -5.5278     0.0002     0.0313 </r>
       <r>    -5.5158     0.0008     0.0313 </r>
       <r>    -5.5038     0.0029     0.0313 </r>
       <r>    -5.4919     0.0095     0.0314 </r>
       <r>    -5.4799     0.0279     0.0317 </r>
       <r>    -5.4679     0.0734     0.0326 </r>
       <r>    -5.4560     0.1722     0.0347 </r>
       <r>    -5.4440     0.3607     0.0390 </r>
       <r>    -5.4320     0.6746     0.0471 </r>
       <r>    -5.4200     1.1261     0.0606 </r>
       <r>    -5.4081     1.6779     0.0807 </r>
       <r>    -5.3961     2.2316     0.1074 </r>
       <r>    -5.3841     2.6493     0.1391 </r>
       <r>    -5.3721     2.8075     0.1727 </r>
       <r>    -5.3602     2.6557     0.2045 </r>
       <r>    -5.3482     2.2424     0.2313 </r>
       <r>    -5.3362     1.6901     0.2516 </r>
       <r>    -5.3243     1.1370     0.2652 </r>
       <r>    -5.3123     0.6828     0.2734 </r>
       <r>    -5.3003     0.3660     0.2778 </r>
       <r>    -5.2883     0.1751     0.2798 </r>
       <r>    -5.2764     0.0748     0.2807 </r>
       <r>    -5.2644     0.0285     0.2811 </r>
       <r>    -5.2524     0.0098     0.2812 </r>
       <r>    -5.2404     0.0034     0.2812 </r>
       <r>    -5.2285     0.0025     0.2813 </r>
       <r>    -5.2165     0.0058     0.2813 </r>
       <r>    -5.2045     0.0170     0.2815 </r>
       <r>    -5.1926     0.0455     0.2821 </r>
       <r>    -5.1806     0.1094     0.2834 </r>
       <r>    -5.1686     0.2346     0.2862 </r>
       <r>    -5.1566     0.4491     0.2916 </r>
       <r>    -5.1447     0.7673     0.3008 </r>
       <r>    -5.1327     1.1703     0.3148 </r>
       <r>    -5.1207     1.5932     0.3339 </r>
       <r>    -5.1087     1.9361     0.3570 </r>
       <r>    -5.0968     2.1001     0.3822 </r>
       <r>    -5.0848     2.0334     0.4065 </r>
       <r>    -5.0728     1.7574     0.4276 </r>
       <r>    -5.0609     1.3558     0.4438 </r>
       <r>    -5.0489     0.9336     0.4550 </r>
       <r>    -5.0369     0.5739     0.4619 </r>
       <r>    -5.0249     0.3149     0.4656 </r>
       <r>    -5.0130     0.1542     0.4675 </r>
       <r>    -5.0010     0.0674     0.4683 </r>
       <r>    -4.9890     0.0263     0.4686 </r>
       <r>    -4.9770     0.0092     0.4687 </r>
       <r>    -4.9651     0.0028     0.4687 </r>
       <r>    -4.9531     0.0008     0.4687 </r>
       <r>    -4.9411     0.0002     0.4687 </r>
       <r>    -4.9292     0.0000     0.4687 </r>
       <r>    -4.9172     0.0000     0.4687 </r>
       <r>    -4.9052     0.0000     0.4687 </r>
       <r>    -4.8932     0.0000     0.4687 </r>
       <r>    -4.8813     0.0000     0.4687 </r>
       <r>    -4.8693     0.0000     0.4687 </r>
       <r>    -4.8573     0.0000     0.4687 </r>
       <r>    -4.8453     0.0000     0.4687 </r>
       <r>    -4.8334     0.0000     0.4687 </r>
       <r>    -4.8214     0.0000     0.4687 </r>
       <r>    -4.8094     0.0000     0.4688 </r>
       <r>    -4.7975     0.0000     0.4688 </r>
       <r>    -4.7855     0.0000     0.4688 </r>
       <r>    -4.7735     0.0000     0.4688 </r>
       <r>    -4.7615     0.0000     0.4688 </r>
       <r>    -4.7496     0.0000     0.4688 </r>
       <r>    -4.7376     0.0000     0.4688 </r>
       <r>    -4.7256     0.0000     0.4688 </r>
       <r>    -4.7136     0.0000     0.4688 </r>
       <r>    -4.7017     0.0000     0.4688 </r>
       <r>    -4.6897     0.0000     0.4688 </r>
       <r>    -4.6777     0.0000     0.4688 </r>
       <r>    -4.6657     0.0000     0.4688 </r>
       <r>    -4.6538     0.0000     0.4688 </r>
       <r>    -4.6418     0.0000     0.4688 </r>
       <r>    -4.6298     0.0000     0.4688 </r>
       <r>    -4.6179     0.0000     0.4688 </r>
       <r>    -4.6059     0.0000     0.4688 </r>
       <r>    -4.5939     0.0000     0.4688 </r>
       <r>    -4.5819     0.0000     0.4688 </r>
       <r>    -4.5700     0.0000     0.4688 </r>
       <r>    -4.5580     0.0000     0.4688 </r>
       <r>    -4.5460     0.0000     0.4688 </r>
       <r>    -4.5340     0.0000     0.4688 </r>
       <r>    -4.5221     0.0000     0.4688 </r>
       <r>    -4.5101     0.0000     0.4688 </r>
       <r>    -4.4981     0.0000     0.4688 </r>
       <r>    -4.4862     0.0000     0.4688 </r>
       <r>    -4.4742     0.0000     0.4688 </r>
       <r>    -4.4622     0.0000     0.4688 </r>
       <r>    -4.4502     0.0000     0.4688 </r>
       <r>    -4.4383     0.0000     0.4688 </r>
       <r>    -4.4263     0.0000     0.4688 </r>
       <r>    -4.4143     0.0000     0.4688 </r>
       <r>    -4.4023     0.0000     0.4688 </r>
       <r>    -4.3904     0.0000     0.4688 </r>
       <r>    -4.3784     0.0000     0.4688 </r>
       <r>    -4.3664     0.0000     0.4688 </r>
       <r>    -4.3545     0.0000     0.4688 </r>
       <r>    -4.3425     0.0000     0.4688 </r>
       <r>    -4.3305     0.0000     0.4688 </r>
       <r>    -4.3185     0.0001     0.4688 </r>
       <r>    -4.3066     0.0003     0.4688 </r>
       <r>    -4.2946     0.0013     0.4688 </r>
       <r>    -4.2826     0.0047     0.4688 </r>
       <r>    -4.2706     0.0153     0.4690 </r>
       <r>    -4.2587     0.0448     0.4695 </r>
       <r>    -4.2467     0.1169     0.4709 </r>
       <r>    -4.2347     0.2723     0.4742 </r>
       <r>    -4.2228     0.5662     0.4810 </r>
       <r>    -4.2108     1.0508     0.4936 </r>
       <r>    -4.1988     1.7408     0.5144 </r>
       <r>    -4.1868     2.5742     0.5452 </r>
       <r>    -4.1749     3.3978     0.5859 </r>
       <r>    -4.1629     4.0035     0.6338 </r>
       <r>    -4.1509     4.2105     0.6843 </r>
       <r>    -4.1389     3.9528     0.7316 </r>
       <r>    -4.1270     3.3124     0.7712 </r>
       <r>    -4.1150     2.4778     0.8009 </r>
       <r>    -4.1030     1.6544     0.8207 </r>
       <r>    -4.0911     0.9860     0.8325 </r>
       <r>    -4.0791     0.5245     0.8388 </r>
       <r>    -4.0671     0.2491     0.8418 </r>
       <r>    -4.0551     0.1056     0.8430 </r>
       <r>    -4.0432     0.0400     0.8435 </r>
       <r>    -4.0312     0.0136     0.8437 </r>
       <r>    -4.0192     0.0045     0.8437 </r>
       <r>    -4.0072     0.0026     0.8438 </r>
       <r>    -3.9953     0.0053     0.8438 </r>
       <r>    -3.9833     0.0149     0.8440 </r>
       <r>    -3.9713     0.0388     0.8445 </r>
       <r>    -3.9594     0.0904     0.8456 </r>
       <r>    -3.9474     0.1881     0.8478 </r>
       <r>    -3.9354     0.3493     0.8520 </r>
       <r>    -3.9234     0.5790     0.8589 </r>
       <r>    -3.9115     0.8566     0.8692 </r>
       <r>    -3.8995     1.1314     0.8827 </r>
       <r>    -3.8875     1.3338     0.8987 </r>
       <r>    -3.8755     1.4036     0.9155 </r>
       <r>    -3.8636     1.3184     0.9313 </r>
       <r>    -3.8516     1.1054     0.9445 </r>
       <r>    -3.8396     0.8274     0.9544 </r>
       <r>    -3.8276     0.5527     0.9610 </r>
       <r>    -3.8157     0.3296     0.9650 </r>
       <r>    -3.8037     0.1755     0.9671 </r>
       <r>    -3.7917     0.0834     0.9681 </r>
       <r>    -3.7798     0.0354     0.9685 </r>
       <r>    -3.7678     0.0134     0.9687 </r>
       <r>    -3.7558     0.0045     0.9687 </r>
       <r>    -3.7438     0.0014     0.9687 </r>
       <r>    -3.7319     0.0004     0.9687 </r>
       <r>    -3.7199     0.0001     0.9687 </r>
       <r>    -3.7079     0.0000     0.9687 </r>
       <r>    -3.6959     0.0000     0.9687 </r>
       <r>    -3.6840     0.0000     0.9688 </r>
       <r>    -3.6720     0.0000     0.9688 </r>
       <r>    -3.6600     0.0001     0.9688 </r>
       <r>    -3.6481     0.0005     0.9688 </r>
       <r>    -3.6361     0.0019     0.9688 </r>
       <r>    -3.6241     0.0073     0.9689 </r>
       <r>    -3.6121     0.0243     0.9692 </r>
       <r>    -3.6002     0.0727     0.9700 </r>
       <r>    -3.5882     0.1942     0.9724 </r>
       <r>    -3.5762     0.4630     0.9779 </r>
       <r>    -3.5642     0.9851     0.9897 </r>
       <r>    -3.5523     1.8710     1.0121 </r>
       <r>    -3.5403     3.1718     1.0501 </r>
       <r>    -3.5283     4.7996     1.1075 </r>
       <r>    -3.5164     6.4830     1.1852 </r>
       <r>    -3.5044     7.8164     1.2787 </r>
       <r>    -3.4924     8.4123     1.3795 </r>
       <r>    -3.4804     8.0814     1.4762 </r>
       <r>    -3.4685     6.9300     1.5592 </r>
       <r>    -3.4565     5.3045     1.6227 </r>
       <r>    -3.4445     3.6243     1.6661 </r>
       <r>    -3.4325     2.2104     1.6926 </r>
       <r>    -3.4206     1.2033     1.7070 </r>
       <r>    -3.4086     0.5847     1.7140 </r>
       <r>    -3.3966     0.2536     1.7170 </r>
       <r>    -3.3847     0.0982     1.7182 </r>
       <r>    -3.3727     0.0339     1.7186 </r>
       <r>    -3.3607     0.0105     1.7187 </r>
       <r>    -3.3487     0.0029     1.7187 </r>
       <r>    -3.3368     0.0007     1.7187 </r>
       <r>    -3.3248     0.0002     1.7187 </r>
       <r>    -3.3128     0.0000     1.7187 </r>
       <r>    -3.3008     0.0000     1.7187 </r>
       <r>    -3.2889     0.0000     1.7187 </r>
       <r>    -3.2769     0.0000     1.7187 </r>
       <r>    -3.2649     0.0000     1.7187 </r>
       <r>    -3.2530     0.0000     1.7187 </r>
       <r>    -3.2410     0.0000     1.7187 </r>
       <r>    -3.2290     0.0000     1.7187 </r>
       <r>    -3.2170     0.0000     1.7187 </r>
       <r>    -3.2051     0.0000     1.7188 </r>
       <r>    -3.1931     0.0000     1.7188 </r>
       <r>    -3.1811     0.0000     1.7188 </r>
       <r>    -3.1691     0.0000     1.7188 </r>
       <r>    -3.1572     0.0000     1.7188 </r>
       <r>    -3.1452     0.0000     1.7188 </r>
       <r>    -3.1332     0.0000     1.7188 </r>
       <r>    -3.1213     0.0000     1.7188 </r>
       <r>    -3.1093     0.0000     1.7188 </r>
       <r>    -3.0973     0.0000     1.7188 </r>
       <r>    -3.0853     0.0000     1.7188 </r>
       <r>    -3.0734     0.0000     1.7188 </r>
       <r>    -3.0614     0.0000     1.7188 </r>
       <r>    -3.0494     0.0000     1.7188 </r>
       <r>    -3.0374     0.0000     1.7188 </r>
       <r>    -3.0255     0.0000     1.7188 </r>
       <r>    -3.0135     0.0000     1.7188 </r>
       <r>    -3.0015     0.0000     1.7188 </r>
       <r>    -2.9896     0.0000     1.7188 </r>
       <r>    -2.9776     0.0000     1.7188 </r>
       <r>    -2.9656     0.0000     1.7188 </r>
       <r>    -2.9536     0.0000     1.7188 </r>
       <r>    -2.9417     0.0000     1.7188 </r>
       <r>    -2.9297     0.0000     1.7188 </r>
       <r>    -2.9177     0.0000     1.7188 </r>
       <r>    -2.9057     0.0000     1.7188 </r>
       <r>    -2.8938     0.0000     1.7188 </r>
       <r>    -2.8818     0.0000     1.7188 </r>
       <r>    -2.8698     0.0000     1.7188 </r>
       <r>    -2.8578     0.0000     1.7188 </r>
       <r>    -2.8459     0.0000     1.7188 </r>
       <r>    -2.8339     0.0000     1.7188 </r>
       <r>    -2.8219     0.0000     1.7188 </r>
       <r>    -2.8100     0.0000     1.7188 </r>
       <r>    -2.7980     0.0000     1.7188 </r>
       <r>    -2.7860     0.0000     1.7188 </r>
       <r>    -2.7740     0.0000     1.7188 </r>
       <r>    -2.7621     0.0000     1.7188 </r>
       <r>    -2.7501     0.0000     1.7188 </r>
       <r>    -2.7381     0.0000     1.7188 </r>
       <r>    -2.7261     0.0000     1.7188 </r>
       <r>    -2.7142     0.0000     1.7188 </r>
       <r>    -2.7022     0.0000     1.7188 </r>
       <r>    -2.6902     0.0000     1.7188 </r>
       <r>    -2.6783     0.0000     1.7188 </r>
       <r>    -2.6663     0.0000     1.7188 </r>
       <r>    -2.6543     0.0000     1.7188 </r>
       <r>    -2.6423     0.0000     1.7188 </r>
       <r>    -2.6304     0.0000     1.7188 </r>
       <r>    -2.6184     0.0000     1.7188 </r>
       <r>    -2.6064     0.0000     1.7188 </r>
       <r>    -2.5944     0.0000     1.7188 </r>
       <r>    -2.5825     0.0000     1.7188 </r>
       <r>    -2.5705     0.0000     1.7188 </r>
       <r>    -2.5585     0.0000     1.7188 </r>
       <r>    -2.5466     0.0000     1.7188 </r>
       <r>    -2.5346     0.0000     1.7188 </r>
       <r>    -2.5226     0.0000     1.7188 </r>
       <r>    -2.5106     0.0000     1.7188 </r>
       <r>    -2.4987     0.0000     1.7188 </r>
       <r>    -2.4867     0.0000     1.7188 </r>
       <r>    -2.4747     0.0000     1.7188 </r>
       <r>    -2.4627     0.0000     1.7188 </r>
       <r>    -2.4508     0.0000     1.7188 </r>
       <r>    -2.4388     0.0000     1.7188 </r>
       <r>    -2.4268     0.0000     1.7188 </r>
       <r>    -2.4149     0.0000     1.7188 </r>
       <r>    -2.4029     0.0000     1.7188 </r>
       <r>    -2.3909     0.0000     1.7188 </r>
       <r>    -2.3789     0.0000     1.7188 </r>
       <r>    -2.3670     0.0000     1.7188 </r>
       <r>    -2.3550     0.0000     1.7188 </r>
       <r>    -2.3430     0.0000     1.7188 </r>
       <r>    -2.3310     0.0000     1.7188 </r>
       <r>    -2.3191     0.0000     1.7188 </r>
       <r>    -2.3071     0.0000     1.7188 </r>
       <r>    -2.2951     0.0000     1.7188 </r>
       <r>    -2.2832     0.0000     1.7188 </r>
       <r>    -2.2712     0.0000     1.7188 </r>
       <r>    -2.2592     0.0000     1.7188 </r>
       <r>    -2.2472     0.0001     1.7188 </r>
       <r>    -2.2353     0.0003     1.7188 </r>
       <r>    -2.2233     0.0010     1.7188 </r>
       <r>    -2.2113     0.0037     1.7188 </r>
       <r>    -2.1993     0.0115     1.7189 </r>
       <r>    -2.1874     0.0323     1.7193 </r>
       <r>    -2.1754     0.0809     1.7203 </r>
       <r>    -2.1634     0.1808     1.7225 </r>
       <r>    -2.1515     0.3605     1.7268 </r>
       <r>    -2.1395     0.6416     1.7345 </r>
       <r>    -2.1275     1.0192     1.7467 </r>
       <r>    -2.1155     1.4452     1.7640 </r>
       <r>    -2.1036     1.8292     1.7859 </r>
       <r>    -2.0916     2.0667     1.8106 </r>
       <r>    -2.0796     2.0846     1.8356 </r>
       <r>    -2.0676     1.8782     1.8581 </r>
       <r>    -2.0557     1.5150     1.8762 </r>
       <r>    -2.0437     1.1048     1.8894 </r>
       <r>    -2.0317     0.7580     1.8985 </r>
       <r>    -2.0198     0.5598     1.9052 </r>
       <r>    -2.0078     0.5679     1.9120 </r>
       <r>    -1.9958     0.8204     1.9218 </r>
       <r>    -1.9838     1.3314     1.9378 </r>
       <r>    -1.9719     2.0654     1.9625 </r>
       <r>    -1.9599     2.9084     1.9973 </r>
       <r>    -1.9479     3.6701     2.0413 </r>
       <r>    -1.9359     4.1378     2.0908 </r>
       <r>    -1.9240     4.1649     2.1407 </r>
       <r>    -1.9120     3.7423     2.1855 </r>
       <r>    -1.9000     3.0015     2.2214 </r>
       <r>    -1.8880     2.1489     2.2471 </r>
       <r>    -1.8761     1.3733     2.2636 </r>
       <r>    -1.8641     0.7834     2.2730 </r>
       <r>    -1.8521     0.3989     2.2777 </r>
       <r>    -1.8402     0.1813     2.2799 </r>
       <r>    -1.8282     0.0735     2.2808 </r>
       <r>    -1.8162     0.0266     2.2811 </r>
       <r>    -1.8042     0.0086     2.2812 </r>
       <r>    -1.7923     0.0025     2.2812 </r>
       <r>    -1.7803     0.0006     2.2812 </r>
       <r>    -1.7683     0.0001     2.2812 </r>
       <r>    -1.7563     0.0000     2.2812 </r>
       <r>    -1.7444     0.0000     2.2812 </r>
       <r>    -1.7324     0.0000     2.2812 </r>
       <r>    -1.7204     0.0000     2.2812 </r>
       <r>    -1.7085     0.0000     2.2812 </r>
       <r>    -1.6965     0.0000     2.2812 </r>
       <r>    -1.6845     0.0000     2.2812 </r>
       <r>    -1.6725     0.0000     2.2812 </r>
       <r>    -1.6606     0.0000     2.2812 </r>
       <r>    -1.6486     0.0000     2.2812 </r>
       <r>    -1.6366     0.0000     2.2812 </r>
       <r>    -1.6246     0.0000     2.2812 </r>
       <r>    -1.6127     0.0000     2.2812 </r>
       <r>    -1.6007     0.0000     2.2812 </r>
       <r>    -1.5887     0.0000     2.2812 </r>
       <r>    -1.5768     0.0000     2.2812 </r>
       <r>    -1.5648     0.0000     2.2812 </r>
       <r>    -1.5528     0.0000     2.2812 </r>
       <r>    -1.5408     0.0000     2.2812 </r>
       <r>    -1.5289     0.0000     2.2812 </r>
       <r>    -1.5169     0.0000     2.2812 </r>
       <r>    -1.5049     0.0000     2.2812 </r>
       <r>    -1.4929     0.0000     2.2813 </r>
       <r>    -1.4810     0.0000     2.2813 </r>
       <r>    -1.4690     0.0000     2.2813 </r>
       <r>    -1.4570     0.0000     2.2813 </r>
       <r>    -1.4451     0.0000     2.2813 </r>
       <r>    -1.4331     0.0000     2.2813 </r>
       <r>    -1.4211     0.0000     2.2813 </r>
       <r>    -1.4091     0.0000     2.2813 </r>
       <r>    -1.3972     0.0000     2.2813 </r>
       <r>    -1.3852     0.0000     2.2813 </r>
       <r>    -1.3732     0.0001     2.2813 </r>
       <r>    -1.3612     0.0002     2.2813 </r>
       <r>    -1.3493     0.0009     2.2813 </r>
       <r>    -1.3373     0.0030     2.2813 </r>
       <r>    -1.3253     0.0092     2.2814 </r>
       <r>    -1.3134     0.0253     2.2817 </r>
       <r>    -1.3014     0.0621     2.2825 </r>
       <r>    -1.2894     0.1362     2.2841 </r>
       <r>    -1.2774     0.2664     2.2873 </r>
       <r>    -1.2655     0.4654     2.2928 </r>
       <r>    -1.2535     0.7255     2.3015 </r>
       <r>    -1.2415     1.0096     2.3136 </r>
       <r>    -1.2295     1.2541     2.3286 </r>
       <r>    -1.2176     1.3905     2.3453 </r>
       <r>    -1.2056     1.3762     2.3618 </r>
       <r>    -1.1936     1.2158     2.3763 </r>
       <r>    -1.1817     0.9588     2.3878 </r>
       <r>    -1.1697     0.6749     2.3959 </r>
       <r>    -1.1577     0.4241     2.4010 </r>
       <r>    -1.1457     0.2378     2.4038 </r>
       <r>    -1.1338     0.1191     2.4052 </r>
       <r>    -1.1218     0.0532     2.4059 </r>
       <r>    -1.1098     0.0212     2.4061 </r>
       <r>    -1.0978     0.0076     2.4062 </r>
       <r>    -1.0859     0.0024     2.4062 </r>
       <r>    -1.0739     0.0007     2.4062 </r>
       <r>    -1.0619     0.0002     2.4062 </r>
       <r>    -1.0500     0.0000     2.4062 </r>
       <r>    -1.0380     0.0000     2.4062 </r>
       <r>    -1.0260     0.0000     2.4062 </r>
       <r>    -1.0140     0.0000     2.4062 </r>
       <r>    -1.0021     0.0000     2.4062 </r>
       <r>    -0.9901     0.0000     2.4062 </r>
       <r>    -0.9781     0.0000     2.4062 </r>
       <r>    -0.9661     0.0000     2.4062 </r>
       <r>    -0.9542     0.0000     2.4062 </r>
       <r>    -0.9422     0.0000     2.4063 </r>
       <r>    -0.9302     0.0000     2.4063 </r>
       <r>    -0.9182     0.0000     2.4063 </r>
       <r>    -0.9063     0.0000     2.4063 </r>
       <r>    -0.8943     0.0000     2.4063 </r>
       <r>    -0.8823     0.0000     2.4063 </r>
       <r>    -0.8704     0.0000     2.4063 </r>
       <r>    -0.8584     0.0000     2.4063 </r>
       <r>    -0.8464     0.0000     2.4063 </r>
       <r>    -0.8344     0.0001     2.4063 </r>
       <r>    -0.8225     0.0003     2.4063 </r>
       <r>    -0.8105     0.0014     2.4063 </r>
       <r>    -0.7985     0.0053     2.4063 </r>
       <r>    -0.7865     0.0184     2.4066 </r>
       <r>    -0.7746     0.0565     2.4072 </r>
       <r>    -0.7626     0.1552     2.4091 </r>
       <r>    -0.7506     0.3801     2.4136 </r>
       <r>    -0.7387     0.8310     2.4236 </r>
       <r>    -0.7267     1.6216     2.4430 </r>
       <r>    -0.7147     2.8248     2.4768 </r>
       <r>    -0.7027     4.3922     2.5294 </r>
       <r>    -0.6908     6.0960     2.6024 </r>
       <r>    -0.6788     7.5522     2.6928 </r>
       <r>    -0.6668     8.3517     2.7928 </r>
       <r>    -0.6548     8.2441     2.8915 </r>
       <r>    -0.6429     7.2641     2.9785 </r>
       <r>    -0.6309     5.7133     3.0469 </r>
       <r>    -0.6189     4.0111     3.0949 </r>
       <r>    -0.6070     2.5136     3.1250 </r>
       <r>    -0.5950     1.4061     3.1418 </r>
       <r>    -0.5830     0.7021     3.1503 </r>
       <r>    -0.5710     0.3129     3.1540 </r>
       <r>    -0.5591     0.1245     3.1555 </r>
       <r>    -0.5471     0.0442     3.1560 </r>
       <r>    -0.5351     0.0140     3.1562 </r>
       <r>    -0.5231     0.0040     3.1562 </r>
       <r>    -0.5112     0.0010     3.1562 </r>
       <r>    -0.4992     0.0002     3.1562 </r>
       <r>    -0.4872     0.0000     3.1562 </r>
       <r>    -0.4753     0.0000     3.1562 </r>
       <r>    -0.4633     0.0000     3.1562 </r>
       <r>    -0.4513     0.0000     3.1562 </r>
       <r>    -0.4393     0.0000     3.1562 </r>
       <r>    -0.4274     0.0000     3.1562 </r>
       <r>    -0.4154     0.0000     3.1562 </r>
       <r>    -0.4034     0.0000     3.1562 </r>
       <r>    -0.3914     0.0000     3.1562 </r>
       <r>    -0.3795     0.0000     3.1562 </r>
       <r>    -0.3675     0.0000     3.1562 </r>
       <r>    -0.3555     0.0000     3.1562 </r>
       <r>    -0.3436     0.0000     3.1562 </r>
       <r>    -0.3316     0.0000     3.1562 </r>
       <r>    -0.3196     0.0000     3.1562 </r>
       <r>    -0.3076     0.0000     3.1562 </r>
       <r>    -0.2957     0.0000     3.1562 </r>
       <r>    -0.2837     0.0000     3.1562 </r>
       <r>    -0.2717     0.0000     3.1562 </r>
       <r>    -0.2597     0.0000     3.1562 </r>
       <r>    -0.2478     0.0000     3.1562 </r>
       <r>    -0.2358     0.0000     3.1562 </r>
       <r>    -0.2238     0.0000     3.1562 </r>
       <r>    -0.2119     0.0000     3.1562 </r>
       <r>    -0.1999     0.0000     3.1562 </r>
       <r>    -0.1879     0.0000     3.1562 </r>
       <r>    -0.1759     0.0000     3.1562 </r>
       <r>    -0.1640     0.0000     3.1562 </r>
       <r>    -0.1520     0.0000     3.1562 </r>
       <r>    -0.1400     0.0000     3.1562 </r>
       <r>    -0.1280     0.0000     3.1562 </r>
       <r>    -0.1161     0.0000     3.1562 </r>
       <r>    -0.1041     0.0000     3.1562 </r>
       <r>    -0.0921     0.0000     3.1562 </r>
       <r>    -0.0802     0.0000     3.1562 </r>
       <r>    -0.0682     0.0000     3.1562 </r>
       <r>    -0.0562     0.0000     3.1563 </r>
       <r>    -0.0442     0.0000     3.1563 </r>
       <r>    -0.0323     0.0000     3.1563 </r>
       <r>    -0.0203     0.0000     3.1563 </r>
       <r>    -0.0083     0.0000     3.1563 </r>
       <r>     0.0037     0.0000     3.1563 </r>
       <r>     0.0156     0.0000     3.1563 </r>
       <r>     0.0276     0.0000     3.1563 </r>
       <r>     0.0396     0.0000     3.1563 </r>
       <r>     0.0516     0.0000     3.1563 </r>
       <r>     0.0635     0.0002     3.1563 </r>
       <r>     0.0755     0.0007     3.1563 </r>
       <r>     0.0875     0.0026     3.1563 </r>
       <r>     0.0994     0.0091     3.1564 </r>
       <r>     0.1114     0.0280     3.1567 </r>
       <r>     0.1234     0.0769     3.1577 </r>
       <r>     0.1354     0.1885     3.1599 </r>
       <r>     0.1473     0.4126     3.1649 </r>
       <r>     0.1593     0.8061     3.1745 </r>
       <r>     0.1713     1.4057     3.1913 </r>
       <r>     0.1833     2.1880     3.2175 </r>
       <r>     0.1952     3.0401     3.2539 </r>
       <r>     0.2072     3.7704     3.2991 </r>
       <r>     0.2192     4.1741     3.3490 </r>
       <r>     0.2311     4.1248     3.3984 </r>
       <r>     0.2431     3.6384     3.4420 </r>
       <r>     0.2551     2.8647     3.4763 </r>
       <r>     0.2671     2.0134     3.5004 </r>
       <r>     0.2790     1.2631     3.5155 </r>
       <r>     0.2910     0.7073     3.5240 </r>
       <r>     0.3030     0.3535     3.5282 </r>
       <r>     0.3150     0.1577     3.5301 </r>
       <r>     0.3269     0.0628     3.5309 </r>
       <r>     0.3389     0.0223     3.5311 </r>
       <r>     0.3509     0.0071     3.5312 </r>
       <r>     0.3628     0.0020     3.5312 </r>
       <r>     0.3748     0.0005     3.5312 </r>
       <r>     0.3868     0.0001     3.5312 </r>
       <r>     0.3988     0.0000     3.5312 </r>
       <r>     0.4107     0.0000     3.5312 </r>
       <r>     0.4227     0.0000     3.5312 </r>
       <r>     0.4347     0.0000     3.5312 </r>
       <r>     0.4467     0.0000     3.5312 </r>
       <r>     0.4586     0.0000     3.5312 </r>
       <r>     0.4706     0.0000     3.5312 </r>
       <r>     0.4826     0.0000     3.5312 </r>
       <r>     0.4945     0.0000     3.5312 </r>
       <r>     0.5065     0.0000     3.5312 </r>
       <r>     0.5185     0.0000     3.5312 </r>
       <r>     0.5305     0.0000     3.5312 </r>
       <r>     0.5424     0.0000     3.5312 </r>
       <r>     0.5544     0.0000     3.5312 </r>
       <r>     0.5664     0.0000     3.5312 </r>
       <r>     0.5784     0.0000     3.5312 </r>
       <r>     0.5903     0.0000     3.5312 </r>
       <r>     0.6023     0.0000     3.5312 </r>
       <r>     0.6143     0.0000     3.5312 </r>
       <r>     0.6262     0.0000     3.5312 </r>
       <r>     0.6382     0.0000     3.5312 </r>
       <r>     0.6502     0.0000     3.5312 </r>
       <r>     0.6622     0.0000     3.5312 </r>
       <r>     0.6741     0.0000     3.5312 </r>
       <r>     0.6861     0.0000     3.5312 </r>
       <r>     0.6981     0.0000     3.5312 </r>
       <r>     0.7101     0.0000     3.5312 </r>
       <r>     0.7220     0.0000     3.5312 </r>
       <r>     0.7340     0.0000     3.5312 </r>
       <r>     0.7460     0.0000     3.5312 </r>
       <r>     0.7579     0.0000     3.5312 </r>
       <r>     0.7699     0.0000     3.5312 </r>
       <r>     0.7819     0.0000     3.5312 </r>
       <r>     0.7939     0.0000     3.5312 </r>
       <r>     0.8058     0.0000     3.5312 </r>
       <r>     0.8178     0.0000     3.5312 </r>
       <r>     0.8298     0.0000     3.5312 </r>
       <r>     0.8418     0.0000     3.5312 </r>
       <r>     0.8537     0.0000     3.5312 </r>
       <r>     0.8657     0.0000     3.5312 </r>
       <r>     0.8777     0.0000     3.5312 </r>
       <r>     0.8896     0.0000     3.5312 </r>
       <r>     0.9016     0.0000     3.5312 </r>
       <r>     0.9136     0.0000     3.5312 </r>
       <r>     0.9256     0.0000     3.5312 </r>
       <r>     0.9375     0.0000     3.5312 </r>
       <r>     0.9495     0.0000     3.5312 </r>
       <r>     0.9615     0.0000     3.5312 </r>
       <r>     0.9735     0.0000     3.5312 </r>
       <r>     0.9854     0.0000     3.5312 </r>
       <r>     0.9974     0.0000     3.5312 </r>
       <r>     1.0094     0.0000     3.5312 </r>
       <r>     1.0214     0.0000     3.5312 </r>
       <r>     1.0333     0.0000     3.5312 </r>
       <r>     1.0453     0.0000     3.5312 </r>
       <r>     1.0573     0.0000     3.5312 </r>
       <r>     1.0692     0.0000     3.5312 </r>
       <r>     1.0812     0.0000     3.5312 </r>
       <r>     1.0932     0.0000     3.5312 </r>
       <r>     1.1052     0.0000     3.5312 </r>
       <r>     1.1171     0.0000     3.5312 </r>
       <r>     1.1291     0.0000     3.5312 </r>
       <r>     1.1411     0.0000     3.5312 </r>
       <r>     1.1531     0.0000     3.5312 </r>
       <r>     1.1650     0.0000     3.5312 </r>
       <r>     1.1770     0.0000     3.5312 </r>
       <r>     1.1890     0.0000     3.5312 </r>
       <r>     1.2009     0.0000     3.5312 </r>
       <r>     1.2129     0.0000     3.5312 </r>
       <r>     1.2249     0.0000     3.5312 </r>
       <r>     1.2369     0.0000     3.5312 </r>
       <r>     1.2488     0.0000     3.5312 </r>
       <r>     1.2608     0.0000     3.5312 </r>
       <r>     1.2728     0.0000     3.5312 </r>
       <r>     1.2848     0.0000     3.5312 </r>
       <r>     1.2967     0.0000     3.5312 </r>
       <r>     1.3087     0.0000     3.5312 </r>
       <r>     1.3207     0.0000     3.5312 </r>
       <r>     1.3326     0.0000     3.5312 </r>
       <r>     1.3446     0.0000     3.5312 </r>
       <r>     1.3566     0.0000     3.5312 </r>
       <r>     1.3686     0.0000     3.5312 </r>
       <r>     1.3805     0.0000     3.5312 </r>
       <r>     1.3925     0.0000     3.5312 </r>
       <r>     1.4045     0.0000     3.5312 </r>
       <r>     1.4165     0.0000     3.5312 </r>
       <r>     1.4284     0.0000     3.5312 </r>
       <r>     1.4404     0.0000     3.5312 </r>
       <r>     1.4524     0.0000     3.5312 </r>
       <r>     1.4643     0.0000     3.5312 </r>
       <r>     1.4763     0.0000     3.5312 </r>
       <r>     1.4883     0.0000     3.5312 </r>
       <r>     1.5003     0.0000     3.5313 </r>
       <r>     1.5122     0.0000     3.5313 </r>
       <r>     1.5242     0.0000     3.5313 </r>
       <r>     1.5362     0.0000     3.5313 </r>
       <r>     1.5482     0.0000     3.5313 </r>
       <r>     1.5601     0.0000     3.5313 </r>
       <r>     1.5721     0.0000     3.5313 </r>
       <r>     1.5841     0.0000     3.5313 </r>
       <r>     1.5960     0.0000     3.5313 </r>
       <r>     1.6080     0.0000     3.5313 </r>
       <r>     1.6200     0.0002     3.5313 </r>
       <r>     1.6320     0.0007     3.5313 </r>
       <r>     1.6439     0.0026     3.5313 </r>
       <r>     1.6559     0.0087     3.5314 </r>
       <r>     1.6679     0.0259     3.5317 </r>
       <r>     1.6799     0.0687     3.5325 </r>
       <r>     1.6918     0.1627     3.5345 </r>
       <r>     1.7038     0.3436     3.5386 </r>
       <r>     1.7158     0.6477     3.5463 </r>
       <r>     1.7277     1.0900     3.5594 </r>
       <r>     1.7397     1.6375     3.5790 </r>
       <r>     1.7517     2.1965     3.6053 </r>
       <r>     1.7637     2.6322     3.6368 </r>
       <r>     1.7756     2.8232     3.6706 </r>
       <r>     1.7876     2.7248     3.7032 </r>
       <r>     1.7996     2.4036     3.7320 </r>
       <r>     1.8116     2.0208     3.7562 </r>
       <r>     1.8235     1.7714     3.7774 </r>
       <r>     1.8355     1.8099     3.7991 </r>
       <r>     1.8475     2.1898     3.8253 </r>
       <r>     1.8594     2.8354     3.8593 </r>
       <r>     1.8714     3.5591     3.9019 </r>
       <r>     1.8834     4.1294     3.9513 </r>
       <r>     1.8954     4.3736     4.0037 </r>
       <r>     1.9073     4.2675     4.0548 </r>
       <r>     1.9193     3.9531     4.1021 </r>
       <r>     1.9313     3.6650     4.1460 </r>
       <r>     1.9433     3.5983     4.1891 </r>
       <r>     1.9552     3.7968     4.2345 </r>
       <r>     1.9672     4.1274     4.2839 </r>
       <r>     1.9792     4.3552     4.3361 </r>
       <r>     1.9912     4.2742     4.3873 </r>
       <r>     2.0031     3.8140     4.4329 </r>
       <r>     2.0151     3.0628     4.4696 </r>
       <r>     2.0271     2.2060     4.4960 </r>
       <r>     2.0390     1.4303     4.5131 </r>
       <r>     2.0510     0.8561     4.5234 </r>
       <r>     2.0630     0.5267     4.5297 </r>
       <r>     2.0750     0.4398     4.5350 </r>
       <r>     2.0869     0.5889     4.5420 </r>
       <r>     2.0989     0.9861     4.5538 </r>
       <r>     2.1109     1.6622     4.5737 </r>
       <r>     2.1229     2.6476     4.6054 </r>
       <r>     2.1348     3.9428     4.6526 </r>
       <r>     2.1468     5.4804     4.7182 </r>
       <r>     2.1588     7.0893     4.8031 </r>
       <r>     2.1707     8.4885     4.9047 </r>
       <r>     2.1827     9.3438     5.0166 </r>
       <r>     2.1947     9.3901     5.1290 </r>
       <r>     2.2067     8.5634     5.2316 </r>
       <r>     2.2186     7.0528     5.3160 </r>
       <r>     2.2306     5.2268     5.3786 </r>
       <r>     2.2426     3.4766     5.4202 </r>
       <r>     2.2546     2.0717     5.4450 </r>
       <r>     2.2665     1.1047     5.4582 </r>
       <r>     2.2785     0.5266     5.4646 </r>
       <r>     2.2905     0.2243     5.4672 </r>
       <r>     2.3024     0.0854     5.4683 </r>
       <r>     2.3144     0.0290     5.4686 </r>
       <r>     2.3264     0.0088     5.4687 </r>
       <r>     2.3384     0.0024     5.4687 </r>
       <r>     2.3503     0.0006     5.4687 </r>
       <r>     2.3623     0.0001     5.4687 </r>
       <r>     2.3743     0.0000     5.4687 </r>
       <r>     2.3863     0.0000     5.4687 </r>
       <r>     2.3982     0.0000     5.4687 </r>
       <r>     2.4102     0.0000     5.4687 </r>
       <r>     2.4222     0.0000     5.4687 </r>
       <r>     2.4341     0.0000     5.4687 </r>
       <r>     2.4461     0.0000     5.4687 </r>
       <r>     2.4581     0.0000     5.4687 </r>
       <r>     2.4701     0.0000     5.4687 </r>
       <r>     2.4820     0.0000     5.4688 </r>
       <r>     2.4940     0.0000     5.4688 </r>
       <r>     2.5060     0.0000     5.4688 </r>
       <r>     2.5180     0.0000     5.4688 </r>
       <r>     2.5299     0.0000     5.4688 </r>
       <r>     2.5419     0.0000     5.4688 </r>
       <r>     2.5539     0.0000     5.4688 </r>
       <r>     2.5658     0.0000     5.4688 </r>
       <r>     2.5778     0.0000     5.4688 </r>
       <r>     2.5898     0.0000     5.4688 </r>
       <r>     2.6018     0.0000     5.4688 </r>
       <r>     2.6137     0.0000     5.4688 </r>
       <r>     2.6257     0.0000     5.4688 </r>
       <r>     2.6377     0.0000     5.4688 </r>
       <r>     2.6497     0.0000     5.4688 </r>
       <r>     2.6616     0.0000     5.4688 </r>
       <r>     2.6736     0.0000     5.4688 </r>
       <r>     2.6856     0.0000     5.4688 </r>
       <r>     2.6975     0.0000     5.4688 </r>
       <r>     2.7095     0.0002     5.4688 </r>
       <r>     2.7215     0.0006     5.4688 </r>
       <r>     2.7335     0.0024     5.4688 </r>
       <r>     2.7454     0.0077     5.4689 </r>
       <r>     2.7574     0.0226     5.4692 </r>
       <r>     2.7694     0.0588     5.4699 </r>
       <r>     2.7814     0.1369     5.4715 </r>
       <r>     2.7933     0.2845     5.4749 </r>
       <r>     2.8053     0.5276     5.4812 </r>
       <r>     2.8173     0.8733     5.4917 </r>
       <r>     2.8293     1.2903     5.5071 </r>
       <r>     2.8412     1.7017     5.5275 </r>
       <r>     2.8532     2.0033     5.5515 </r>
       <r>     2.8652     2.1052     5.5767 </r>
       <r>     2.8771     1.9747     5.6003 </r>
       <r>     2.8891     1.6534     5.6201 </r>
       <r>     2.9011     1.2357     5.6349 </r>
       <r>     2.9131     0.8244     5.6448 </r>
       <r>     2.9250     0.4909     5.6507 </r>
       <r>     2.9370     0.2609     5.6538 </r>
       <r>     2.9490     0.1238     5.6553 </r>
       <r>     2.9610     0.0524     5.6559 </r>
       <r>     2.9729     0.0198     5.6561 </r>
       <r>     2.9849     0.0067     5.6562 </r>
       <r>     2.9969     0.0020     5.6562 </r>
       <r>     3.0088     0.0005     5.6562 </r>
       <r>     3.0208     0.0001     5.6562 </r>
       <r>     3.0328     0.0000     5.6562 </r>
       <r>     3.0448     0.0000     5.6562 </r>
       <r>     3.0567     0.0000     5.6562 </r>
       <r>     3.0687     0.0000     5.6562 </r>
       <r>     3.0807     0.0000     5.6562 </r>
       <r>     3.0927     0.0000     5.6562 </r>
       <r>     3.1046     0.0000     5.6562 </r>
       <r>     3.1166     0.0000     5.6562 </r>
       <r>     3.1286     0.0000     5.6562 </r>
       <r>     3.1405     0.0000     5.6562 </r>
       <r>     3.1525     0.0000     5.6562 </r>
       <r>     3.1645     0.0000     5.6562 </r>
       <r>     3.1765     0.0000     5.6562 </r>
       <r>     3.1884     0.0000     5.6562 </r>
       <r>     3.2004     0.0000     5.6562 </r>
       <r>     3.2124     0.0000     5.6562 </r>
       <r>     3.2244     0.0000     5.6563 </r>
       <r>     3.2363     0.0000     5.6563 </r>
       <r>     3.2483     0.0000     5.6563 </r>
       <r>     3.2603     0.0000     5.6563 </r>
       <r>     3.2722     0.0000     5.6563 </r>
       <r>     3.2842     0.0000     5.6563 </r>
       <r>     3.2962     0.0000     5.6563 </r>
       <r>     3.3082     0.0000     5.6563 </r>
       <r>     3.3201     0.0000     5.6563 </r>
       <r>     3.3321     0.0001     5.6563 </r>
       <r>     3.3441     0.0005     5.6563 </r>
       <r>     3.3561     0.0021     5.6563 </r>
       <r>     3.3680     0.0078     5.6564 </r>
       <r>     3.3800     0.0259     5.6567 </r>
       <r>     3.3920     0.0770     5.6576 </r>
       <r>     3.4039     0.2043     5.6601 </r>
       <r>     3.4159     0.4840     5.6658 </r>
       <r>     3.4279     1.0233     5.6781 </r>
       <r>     3.4399     1.9315     5.7012 </r>
       <r>     3.4518     3.2541     5.7402 </r>
       <r>     3.4638     4.8936     5.7988 </r>
       <r>     3.4758     6.5690     5.8774 </r>
       <r>     3.4878     7.8710     5.9717 </r>
       <r>     3.4997     8.4185     6.0725 </r>
       <r>     3.5117     8.0373     6.1687 </r>
       <r>     3.5237     6.8494     6.2507 </r>
       <r>     3.5356     5.2103     6.3131 </r>
       <r>     3.5476     3.5379     6.3554 </r>
       <r>     3.5596     2.1443     6.3811 </r>
       <r>     3.5716     1.1601     6.3950 </r>
       <r>     3.5835     0.5602     6.4017 </r>
       <r>     3.5955     0.2415     6.4046 </r>
       <r>     3.6075     0.0929     6.4057 </r>
       <r>     3.6195     0.0319     6.4061 </r>
       <r>     3.6314     0.0098     6.4062 </r>
       <r>     3.6434     0.0027     6.4062 </r>
       <r>     3.6554     0.0009     6.4063 </r>
       <r>     3.6673     0.0010     6.4063 </r>
       <r>     3.6793     0.0033     6.4063 </r>
       <r>     3.6913     0.0109     6.4064 </r>
       <r>     3.7033     0.0330     6.4068 </r>
       <r>     3.7152     0.0891     6.4079 </r>
       <r>     3.7272     0.2147     6.4105 </r>
       <r>     3.7392     0.4616     6.4160 </r>
       <r>     3.7512     0.8860     6.4266 </r>
       <r>     3.7631     1.5178     6.4448 </r>
       <r>     3.7751     2.3209     6.4726 </r>
       <r>     3.7871     3.1679     6.5105 </r>
       <r>     3.7991     3.8597     6.5567 </r>
       <r>     3.8110     4.1977     6.6070 </r>
       <r>     3.8230     4.0750     6.6557 </r>
       <r>     3.8350     3.5312     6.6980 </r>
       <r>     3.8469     2.7314     6.7307 </r>
       <r>     3.8589     1.8859     6.7533 </r>
       <r>     3.8709     1.1623     6.7672 </r>
       <r>     3.8829     0.6394     6.7749 </r>
       <r>     3.8948     0.3140     6.7786 </r>
       <r>     3.9068     0.1376     6.7803 </r>
       <r>     3.9188     0.0538     6.7809 </r>
       <r>     3.9308     0.0188     6.7812 </r>
       <r>     3.9427     0.0059     6.7812 </r>
       <r>     3.9547     0.0016     6.7812 </r>
       <r>     3.9667     0.0004     6.7812 </r>
       <r>     3.9786     0.0001     6.7812 </r>
       <r>     3.9906     0.0000     6.7812 </r>
       <r>     4.0026     0.0000     6.7812 </r>
       <r>     4.0146     0.0000     6.7812 </r>
       <r>     4.0265     0.0000     6.7812 </r>
       <r>     4.0385     0.0000     6.7812 </r>
       <r>     4.0505     0.0000     6.7812 </r>
       <r>     4.0625     0.0000     6.7812 </r>
       <r>     4.0744     0.0000     6.7812 </r>
       <r>     4.0864     0.0000     6.7813 </r>
       <r>     4.0984     0.0000     6.7813 </r>
       <r>     4.1103     0.0000     6.7813 </r>
       <r>     4.1223     0.0000     6.7813 </r>
       <r>     4.1343     0.0000     6.7813 </r>
       <r>     4.1463     0.0000     6.7813 </r>
       <r>     4.1582     0.0000     6.7813 </r>
       <r>     4.1702     0.0000     6.7813 </r>
       <r>     4.1822     0.0000     6.7813 </r>
       <r>     4.1942     0.0001     6.7813 </r>
       <r>     4.2061     0.0003     6.7813 </r>
       <r>     4.2181     0.0011     6.7813 </r>
       <r>     4.2301     0.0041     6.7813 </r>
       <r>     4.2420     0.0136     6.7815 </r>
       <r>     4.2540     0.0402     6.7820 </r>
       <r>     4.2660     0.1062     6.7832 </r>
       <r>     4.2780     0.2505     6.7862 </r>
       <r>     4.2899     0.5271     6.7925 </r>
       <r>     4.3019     0.9900     6.8044 </r>
       <r>     4.3139     1.6597     6.8243 </r>
       <r>     4.3259     2.4839     6.8540 </r>
       <r>     4.3378     3.3182     6.8937 </r>
       <r>     4.3498     3.9577     6.9411 </r>
       <r>     4.3618     4.2161     6.9916 </r>
       <r>     4.3737     4.0171     7.0397 </r>
       <r>     4.3857     3.4389     7.0809 </r>
       <r>     4.3977     2.6831     7.1130 </r>
       <r>     4.4097     1.9899     7.1368 </r>
       <r>     4.4216     1.5501     7.1554 </r>
       <r>     4.4336     1.4520     7.1728 </r>
       <r>     4.4456     1.6704     7.1928 </r>
       <r>     4.4576     2.0843     7.2177 </r>
       <r>     4.4695     2.5148     7.2478 </r>
       <r>     4.4815     2.7830     7.2811 </r>
       <r>     4.4935     2.7727     7.3143 </r>
       <r>     4.5054     2.4724     7.3439 </r>
       <r>     4.5174     1.9694     7.3675 </r>
       <r>     4.5294     1.4007     7.3843 </r>
       <r>     4.5414     0.8893     7.3949 </r>
       <r>     4.5533     0.5040     7.4010 </r>
       <r>     4.5653     0.2550     7.4040 </r>
       <r>     4.5773     0.1151     7.4054 </r>
       <r>     4.5893     0.0464     7.4060 </r>
       <r>     4.6012     0.0167     7.4062 </r>
       <r>     4.6132     0.0054     7.4062 </r>
       <r>     4.6252     0.0015     7.4062 </r>
       <r>     4.6371     0.0004     7.4062 </r>
       <r>     4.6491     0.0001     7.4062 </r>
       <r>     4.6611     0.0000     7.4062 </r>
       <r>     4.6731     0.0000     7.4062 </r>
       <r>     4.6850     0.0000     7.4062 </r>
       <r>     4.6970     0.0000     7.4062 </r>
       <r>     4.7090     0.0000     7.4063 </r>
       <r>     4.7210     0.0000     7.4063 </r>
       <r>     4.7329     0.0000     7.4063 </r>
       <r>     4.7449     0.0000     7.4063 </r>
       <r>     4.7569     0.0001     7.4063 </r>
       <r>     4.7689     0.0004     7.4063 </r>
       <r>     4.7808     0.0016     7.4063 </r>
       <r>     4.7928     0.0059     7.4063 </r>
       <r>     4.8048     0.0195     7.4066 </r>
       <r>     4.8167     0.0572     7.4073 </r>
       <r>     4.8287     0.1500     7.4091 </r>
       <r>     4.8407     0.3511     7.4133 </r>
       <r>     4.8527     0.7336     7.4220 </r>
       <r>     4.8646     1.3681     7.4384 </r>
       <r>     4.8766     2.2774     7.4657 </r>
       <r>     4.8886     3.3838     7.5062 </r>
       <r>     4.9006     4.4880     7.5599 </r>
       <r>     4.9125     5.3133     7.6236 </r>
       <r>     4.9245     5.6150     7.6908 </r>
       <r>     4.9365     5.2966     7.7542 </r>
       <r>     4.9484     4.4599     7.8076 </r>
       <r>     4.9604     3.3521     7.8477 </r>
       <r>     4.9724     2.2489     7.8747 </r>
       <r>     4.9844     1.3468     7.8908 </r>
       <r>     4.9963     0.7199     7.8994 </r>
       <r>     5.0083     0.3435     7.9035 </r>
       <r>     5.0203     0.1463     7.9053 </r>
       <r>     5.0323     0.0556     7.9059 </r>
       <r>     5.0442     0.0189     7.9062 </r>
       <r>     5.0562     0.0057     7.9062 </r>
       <r>     5.0682     0.0015     7.9062 </r>
       <r>     5.0801     0.0004     7.9062 </r>
       <r>     5.0921     0.0001     7.9062 </r>
       <r>     5.1041     0.0000     7.9062 </r>
       <r>     5.1161     0.0000     7.9062 </r>
       <r>     5.1280     0.0000     7.9062 </r>
       <r>     5.1400     0.0000     7.9062 </r>
       <r>     5.1520     0.0000     7.9062 </r>
       <r>     5.1640     0.0000     7.9062 </r>
       <r>     5.1759     0.0000     7.9062 </r>
       <r>     5.1879     0.0000     7.9062 </r>
       <r>     5.1999     0.0000     7.9062 </r>
       <r>     5.2118     0.0000     7.9062 </r>
       <r>     5.2238     0.0000     7.9062 </r>
       <r>     5.2358     0.0000     7.9062 </r>
       <r>     5.2478     0.0000     7.9062 </r>
       <r>     5.2597     0.0000     7.9062 </r>
       <r>     5.2717     0.0000     7.9062 </r>
       <r>     5.2837     0.0000     7.9062 </r>
       <r>     5.2957     0.0000     7.9062 </r>
       <r>     5.3076     0.0000     7.9062 </r>
       <r>     5.3196     0.0000     7.9062 </r>
       <r>     5.3316     0.0000     7.9062 </r>
       <r>     5.3435     0.0000     7.9062 </r>
       <r>     5.3555     0.0000     7.9062 </r>
       <r>     5.3675     0.0000     7.9062 </r>
       <r>     5.3795     0.0000     7.9062 </r>
       <r>     5.3914     0.0000     7.9062 </r>
       <r>     5.4034     0.0000     7.9063 </r>
       <r>     5.4154     0.0000     7.9063 </r>
       <r>     5.4274     0.0000     7.9063 </r>
       <r>     5.4393     0.0000     7.9063 </r>
       <r>     5.4513     0.0000     7.9063 </r>
       <r>     5.4633     0.0000     7.9063 </r>
       <r>     5.4752     0.0000     7.9063 </r>
       <r>     5.4872     0.0000     7.9063 </r>
       <r>     5.4992     0.0000     7.9063 </r>
       <r>     5.5112     0.0000     7.9063 </r>
       <r>     5.5231     0.0001     7.9063 </r>
       <r>     5.5351     0.0003     7.9063 </r>
       <r>     5.5471     0.0013     7.9063 </r>
       <r>     5.5591     0.0041     7.9063 </r>
       <r>     5.5710     0.0119     7.9065 </r>
       <r>     5.5830     0.0309     7.9068 </r>
       <r>     5.5950     0.0714     7.9077 </r>
       <r>     5.6069     0.1475     7.9095 </r>
       <r>     5.6189     0.2719     7.9127 </r>
       <r>     5.6309     0.4473     7.9181 </r>
       <r>     5.6429     0.6568     7.9259 </r>
       <r>     5.6548     0.8609     7.9362 </r>
       <r>     5.6668     1.0073     7.9483 </r>
       <r>     5.6788     1.0520     7.9609 </r>
       <r>     5.6908     0.9807     7.9726 </r>
       <r>     5.7027     0.8161     7.9824 </r>
       <r>     5.7147     0.6062     7.9897 </r>
       <r>     5.7267     0.4019     7.9945 </r>
       <r>     5.7387     0.2379     7.9973 </r>
       <r>     5.7506     0.1257     7.9988 </r>
[...]
        <r>    16.6100     0.0000     0.0000     0.0000     0.0000     0.0000     0.0000     0.0000     0.0000     0.0000 </r>
        <r>    16.6220     0.0000     0.0000     0.0000     0.0000     0.0000     0.0000     0.0000     0.0000     0.0000 </r>
        <r>    16.6339     0.0000     0.0000     0.0000     0.0000     0.0000     0.0000     0.0000     0.0000     0.0000 </r>
        <r>    16.6459     0.0000     0.0000     0.0000     0.0000     0.0000     0.0000     0.0000     0.0000     0.0000 </r>
        <r>    16.6579     0.0000     0.0000     0.0000     0.0000     0.0000     0.0000     0.0000     0.0000     0.0000 </r>
        <r>    16.6699     0.0000     0.0000     0.0000     0.0000     0.0000     0.0000     0.0000     0.0000     0.0000 </r>
        <r>    16.6818     0.0000     0.0000     0.0000     0.0000     0.0000     0.0000     0.0000     0.0000     0.0000 </r>
        <r>    16.6938     0.0000     0.0000     0.0000     0.0000     0.0000     0.0000     0.0000     0.0000     0.0000 </r>
       </set>
      </set>
     </set>
    </array>
   </partial>
  </dos>
  <projected>
   <eigenvalues>
    <array>
     <dimension dim="1">band</dimension>
     <dimension dim="2">kpoint</dimension>
     <dimension dim="3">spin</dimension>
     <field>eigene</field>
     <field>occ</field>
     <set>
      <set comment="spin 1">
       <set comment="kpoint 1">
        <r>   -6.1634    1.0000 </r>
        <r>    5.6714    1.0000 </r>
        <r>    5.6714    1.0000 </r>
        <r>    5.6714    1.0000 </r>
        <r>    8.2125    0.0000 </r>
        <r>    8.2126    0.0000 </r>
        <r>    8.2126    0.0000 </r>
        <r>    8.7971    0.0000 </r>
       </set>
       <set comment="kpoint 2">
        <r>   -5.3780    1.0000 </r>
        <r>    1.7706    1.0000 </r>
        <r>    4.9183    1.0000 </r>
        <r>    4.9184    1.0000 </r>
        <r>    7.6225    0.0000 </r>
        <r>    9.1513    0.0000 </r>
        <r>    9.1513    0.0000 </r>
        <r>   12.4204    0.0000 </r>
       </set>
       <set comment="kpoint 3">
        <r>   -3.8821    1.0000 </r>
        <r>   -1.2187    1.0000 </r>
        <r>    4.4815    1.0000 </r>
        <r>    4.4815    1.0000 </r>
        <r>    7.1319    0.0000 </r>
        <r>    9.0127    0.0000 </r>
        <r>    9.0128    0.0000 </r>
        <r>   13.3578    0.0000 </r>
       </set>
       <set comment="kpoint 4">
        <r>   -5.1002    1.0000 </r>
        <r>    2.1444    1.0000 </r>
        <r>    3.8079    1.0000 </r>
        <r>    3.8079    1.0000 </r>
        <r>    6.8089    0.0000 </r>
        <r>    8.8017    0.0000 </r>
        <r>   11.3625    0.0000 </r>
        <r>   11.3626    0.0000 </r>
       </set>
       <set comment="kpoint 5">
        <r>   -3.4966    1.0000 </r>
        <r>   -0.6682    1.0000 </r>
        <r>    2.1888    1.0000 </r>
        <r>    3.4948    1.0000 </r>
        <r>    7.2035    0.0000 </r>
        <r>   10.1039    0.0000 </r>
        <r>   11.3183    0.0000 </r>
        <r>   11.5520    0.0000 </r>
       </set>
       <set comment="kpoint 6">
        <r>   -4.1576    1.0000 </r>
        <r>    0.2179    1.0000 </r>
        <r>    1.9806    1.0000 </r>
        <r>    4.3564    1.0000 </r>
        <r>    8.0994    0.0000 </r>
        <r>   10.4058    0.0000 </r>
        <r>   10.7709    0.0000 </r>
        <r>   11.7036    0.0000 </r>
       </set>
       <set comment="kpoint 7">
        <r>   -2.0907    1.0000 </r>
        <r>   -2.0907    1.0000 </r>
        <r>    2.8584    1.0000 </r>
        <r>    2.8584    1.0000 </r>
        <r>    6.4145    0.0000 </r>
        <r>    6.4146    0.0000 </r>
        <r>   15.6053    0.0000 </r>
        <r>   15.6054    0.0000 </r>
       </set>
       <set comment="kpoint 8">
        <r>   -1.9352    1.0000 </r>
        <r>   -1.9352    1.0000 </r>
        <r>    1.8877    1.0000 </r>
        <r>    1.8878    1.0000 </r>
        <r>    9.9482    0.0000 </r>
        <r>    9.9483    0.0000 </r>
        <r>   10.5932    0.0000 </r>
        <r>   10.5933    0.0000 </r>
       </set>
      </set>
     </set>
    </array>
   </eigenvalues>
   <array>
    <dimension dim="1">ion</dimension>
    <dimension dim="2">band</dimension>
    <dimension dim="3">kpoint</dimension>
    <dimension dim="4">spin</dimension>
    <field>    s</field>
    <field>   py</field>
    <field>   pz</field>
    <field>   px</field>
    <field>  dxy</field>
    <field>  dyz</field>
    <field>  dz2</field>
    <field>  dxz</field>
    <field>x2-y2</field>
    <set>
     <set comment="spin1">
      <set comment="kpoint 1">
       <set comment="band 1">
        <r>  0.2130  0.0000  0.0000  0.0000  0.0000  0.0000  0.0000  0.0000  0.0000 </r>
        <r>  0.2130  0.0000  0.0000  0.0000  0.0000  0.0000  0.0000  0.0000  0.0000 </r>
       </set>
       <set comment="band 2">
        <r>  0.0000  0.0483  0.0240  0.1447  0.0000  0.0000  0.0000  0.0000  0.0000 </r>
        <r>  0.0000  0.0483  0.0240  0.1447  0.0000  0.0000  0.0000  0.0000  0.0000 </r>
       </set>
       <set comment="band 3">
        <r>  0.0000  0.1619  0.0000  0.0550  0.0000  0.0000  0.0000  0.0000  0.0000 </r>
        <r>  0.0000  0.1619  0.0000  0.0550  0.0000  0.0000  0.0000  0.0000  0.0000 </r>
       </set>
       <set comment="band 4">
        <r>  0.0000  0.0067  0.1930  0.0172  0.0000  0.0000  0.0000  0.0000  0.0000 </r>
        <r>  0.0000  0.0067  0.1930  0.0172  0.0000  0.0000  0.0000  0.0000  0.0000 </r>
       </set>
       <set comment="band 5">
        <r>  0.0000  0.0339  0.0170  0.1018  0.0000  0.0000  0.0000  0.0000  0.0000 </r>
        <r>  0.0000  0.0339  0.0170  0.1018  0.0000  0.0000  0.0000  0.0000  0.0000 </r>
       </set>
       <set comment="band 6">
        <r>  0.0000  0.0001  0.1321  0.0206  0.0000  0.0000  0.0000  0.0000  0.0000 </r>
        <r>  0.0000  0.0001  0.1321  0.0206  0.0000  0.0000  0.0000  0.0000  0.0000 </r>
       </set>
       <set comment="band 7">
        <r>  0.0000  0.1187  0.0037  0.0303  0.0000  0.0000  0.0000  0.0000  0.0000 </r>
        <r>  0.0000  0.1187  0.0037  0.0303  0.0000  0.0000  0.0000  0.0000  0.0000 </r>
       </set>
       <set comment="band 8">
        <r>  0.3607  0.0000  0.0000  0.0000  0.0000  0.0000  0.0000  0.0000  0.0000 </r>
        <r>  0.3607  0.0000  0.0000  0.0000  0.0000  0.0000  0.0000  0.0000  0.0000 </r>
       </set>
      </set>
      <set comment="kpoint 2">
       <set comment="band 1">
        <r>  0.2101  0.0018  0.0009  0.0053  0.0000  0.0000  0.0000  0.0000  0.0000 </r>
        <r>  0.2101  0.0018  0.0009  0.0053  0.0000  0.0000  0.0000  0.0000  0.0000 </r>
       </set>
       <set comment="band 2">
        <r>  0.0972  0.0264  0.0132  0.0791  0.0000  0.0000  0.0000  0.0000  0.0000 </r>
        <r>  0.0972  0.0264  0.0132  0.0791  0.0000  0.0000  0.0000  0.0000  0.0000 </r>
       </set>
       <set comment="band 3">
        <r>  0.0000  0.0952  0.0473  0.0713  0.0000  0.0000  0.0000  0.0000  0.0000 </r>
        <r>  0.0000  0.0952  0.0473  0.0713  0.0000  0.0000  0.0000  0.0000  0.0000 </r>
       </set>
       <set comment="band 4">
        <r>  0.0000  0.0711  0.1427  0.0000  0.0000  0.0000  0.0000  0.0000  0.0000 </r>
        <r>  0.0000  0.0711  0.1427  0.0000  0.0000  0.0000  0.0000  0.0000  0.0000 </r>
       </set>
       <set comment="band 5">
        <r>  0.1577  0.0108  0.0054  0.0325  0.0000  0.0000  0.0000  0.0000  0.0000 </r>
        <r>  0.1577  0.0108  0.0054  0.0325  0.0000  0.0000  0.0000  0.0000  0.0000 </r>
       </set>
       <set comment="band 6">
        <r>  0.0000  0.0625  0.0313  0.0469  0.0000  0.0000  0.0000  0.0000  0.0000 </r>
        <r>  0.0000  0.0625  0.0313  0.0469  0.0000  0.0000  0.0000  0.0000  0.0000 </r>
       </set>
       <set comment="band 7">
        <r>  0.0000  0.0469  0.0938  0.0000  0.0000  0.0000  0.0000  0.0000  0.0000 </r>
        <r>  0.0000  0.0469  0.0938  0.0000  0.0000  0.0000  0.0000  0.0000  0.0000 </r>
       </set>
       <set comment="band 8">
        <r>  0.1108  0.0340  0.0170  0.1021  0.0000  0.0000  0.0000  0.0000  0.0000 </r>
        <r>  0.1108  0.0340  0.0170  0.1021  0.0000  0.0000  0.0000  0.0000  0.0000 </r>
       </set>
      </set>
      <set comment="kpoint 3">
       <set comment="band 1">
        <r>  0.2240  0.0030  0.0015  0.0090  0.0000  0.0000  0.0000  0.0000  0.0000 </r>
        <r>  0.2240  0.0030  0.0015  0.0090  0.0000  0.0000  0.0000  0.0000  0.0000 </r>
       </set>
       <set comment="band 2">
        <r>  0.0999  0.0206  0.0103  0.0619  0.0000  0.0000  0.0000  0.0000  0.0000 </r>
        <r>  0.0999  0.0206  0.0103  0.0619  0.0000  0.0000  0.0000  0.0000  0.0000 </r>
       </set>
       <set comment="band 3">
        <r>  0.0000  0.0971  0.0483  0.0727  0.0000  0.0000  0.0000  0.0000  0.0000 </r>
        <r>  0.0000  0.0971  0.0483  0.0727  0.0000  0.0000  0.0000  0.0000  0.0000 </r>
       </set>
       <set comment="band 4">
        <r>  0.0000  0.0725  0.1456  0.0000  0.0000  0.0000  0.0000  0.0000  0.0000 </r>
        <r>  0.0000  0.0725  0.1456  0.0000  0.0000  0.0000  0.0000  0.0000  0.0000 </r>
       </set>
       <set comment="band 5">
        <r>  0.1870  0.0046  0.0023  0.0139  0.0000  0.0000  0.0000  0.0000  0.0000 </r>
        <r>  0.1870  0.0046  0.0023  0.0139  0.0000  0.0000  0.0000  0.0000  0.0000 </r>
       </set>
       <set comment="band 6">
        <r>  0.0000  0.0427  0.0214  0.0321  0.0000  0.0000  0.0000  0.0000  0.0000 </r>
        <r>  0.0000  0.0427  0.0214  0.0321  0.0000  0.0000  0.0000  0.0000  0.0000 </r>
       </set>
       <set comment="band 7">
        <r>  0.0000  0.0321  0.0641  0.0000  0.0000  0.0000  0.0000  0.0000  0.0000 </r>
        <r>  0.0000  0.0321  0.0641  0.0000  0.0000  0.0000  0.0000  0.0000  0.0000 </r>
       </set>
       <set comment="band 8">
        <r>  0.0056  0.0122  0.0061  0.0366  0.0000  0.0000  0.0000  0.0000  0.0000 </r>
        <r>  0.0056  0.0122  0.0061  0.0366  0.0000  0.0000  0.0000  0.0000  0.0000 </r>
       </set>
      </set>
      <set comment="kpoint 4">
       <set comment="band 1">
        <r>  0.2077  0.0019  0.0039  0.0058  0.0000  0.0000  0.0000  0.0000  0.0000 </r>
        <r>  0.2077  0.0019  0.0039  0.0058  0.0000  0.0000  0.0000  0.0000  0.0000 </r>
       </set>
       <set comment="band 2">
        <r>  0.1574  0.0163  0.0327  0.0490  0.0000  0.0000  0.0000  0.0000  0.0000 </r>
        <r>  0.1574  0.0163  0.0327  0.0490  0.0000  0.0000  0.0000  0.0000  0.0000 </r>
       </set>
       <set comment="band 3">
        <r>  0.0000  0.0166  0.1326  0.0497  0.0000  0.0000  0.0000  0.0000  0.0000 </r>
        <r>  0.0000  0.0166  0.1326  0.0497  0.0000  0.0000  0.0000  0.0000  0.0000 </r>
       </set>
       <set comment="band 4">
        <r>  0.0000  0.1491  0.0000  0.0497  0.0000  0.0000  0.0000  0.0000  0.0000 </r>
        <r>  0.0000  0.1491  0.0000  0.0497  0.0000  0.0000  0.0000  0.0000  0.0000 </r>
       </set>
       <set comment="band 5">
        <r>  0.0426  0.0130  0.0260  0.0390  0.0000  0.0000  0.0000  0.0000  0.0000 </r>
        <r>  0.0426  0.0130  0.0260  0.0390  0.0000  0.0000  0.0000  0.0000  0.0000 </r>
       </set>
       <set comment="band 6">
        <r>  0.0525  0.0069  0.0138  0.0207  0.0000  0.0000  0.0000  0.0000  0.0000 </r>
        <r>  0.0525  0.0069  0.0138  0.0207  0.0000  0.0000  0.0000  0.0000  0.0000 </r>
       </set>
       <set comment="band 7">
        <r>  0.0000  0.0141  0.1128  0.0423  0.0000  0.0000  0.0000  0.0000  0.0000 </r>
        <r>  0.0000  0.0141  0.1128  0.0423  0.0000  0.0000  0.0000  0.0000  0.0000 </r>
       </set>
       <set comment="band 8">
        <r>  0.0000  0.1269  0.0000  0.0423  0.0000  0.0000  0.0000  0.0000  0.0000 </r>
        <r>  0.0000  0.1269  0.0000  0.0423  0.0000  0.0000  0.0000  0.0000  0.0000 </r>
       </set>
      </set>
      <set comment="kpoint 5">
       <set comment="band 1">
        <r>  0.2099  0.0029  0.0066  0.0148  0.0000  0.0000  0.0000  0.0000  0.0000 </r>
        <r>  0.2099  0.0029  0.0066  0.0148  0.0000  0.0000  0.0000  0.0000  0.0000 </r>
       </set>
       <set comment="band 2">
        <r>  0.1574  0.0137  0.0120  0.0479  0.0000  0.0000  0.0000  0.0000  0.0000 </r>
        <r>  0.1574  0.0137  0.0120  0.0479  0.0000  0.0000  0.0000  0.0000  0.0000 </r>
       </set>
       <set comment="band 3">
        <r>  0.0244  0.1066  0.0204  0.0264  0.0000  0.0000  0.0000  0.0000  0.0000 </r>
        <r>  0.0244  0.1066  0.0204  0.0264  0.0000  0.0000  0.0000  0.0000  0.0000 </r>
       </set>
       <set comment="band 4">
        <r>  0.0000  0.0168  0.1344  0.0504  0.0000  0.0000  0.0000  0.0000  0.0000 </r>
        <r>  0.0000  0.0168  0.1344  0.0504  0.0000  0.0000  0.0000  0.0000  0.0000 </r>
       </set>
       <set comment="band 5">
        <r>  0.0509  0.0217  0.0160  0.0149  0.0000  0.0000  0.0000  0.0000  0.0000 </r>
        <r>  0.0509  0.0217  0.0160  0.0149  0.0000  0.0000  0.0000  0.0000  0.0000 </r>
       </set>
       <set comment="band 6">
        <r>  0.0220  0.0528  0.0051  0.0254  0.0000  0.0000  0.0000  0.0000  0.0000 </r>
        <r>  0.0220  0.0528  0.0051  0.0254  0.0000  0.0000  0.0000  0.0000  0.0000 </r>
       </set>
       <set comment="band 7">
        <r>  0.0633  0.1076  0.0168  0.0045  0.0000  0.0000  0.0000  0.0000  0.0000 </r>
        <r>  0.0633  0.1076  0.0168  0.0045  0.0000  0.0000  0.0000  0.0000  0.0000 </r>
       </set>
       <set comment="band 8">
        <r>  0.0000  0.0098  0.0788  0.0295  0.0000  0.0000  0.0000  0.0000  0.0000 </r>
        <r>  0.0000  0.0098  0.0788  0.0295  0.0000  0.0000  0.0000  0.0000  0.0000 </r>
       </set>
      </set>
      <set comment="kpoint 6">
       <set comment="band 1">
        <r>  0.2090  0.0128  0.0008  0.0053  0.0000  0.0000  0.0000  0.0000  0.0000 </r>
        <r>  0.2090  0.0128  0.0008  0.0053  0.0000  0.0000  0.0000  0.0000  0.0000 </r>
       </set>
       <set comment="band 2">
        <r>  0.1556  0.0393  0.0129  0.0303  0.0000  0.0000  0.0000  0.0000  0.0000 </r>
        <r>  0.1556  0.0393  0.0129  0.0303  0.0000  0.0000  0.0000  0.0000  0.0000 </r>
       </set>
       <set comment="band 3">
        <r>  0.0130  0.0683  0.0271  0.0588  0.0000  0.0000  0.0000  0.0000  0.0000 </r>
        <r>  0.0130  0.0683  0.0271  0.0588  0.0000  0.0000  0.0000  0.0000  0.0000 </r>
       </set>
       <set comment="band 4">
        <r>  0.0000  0.0176  0.1410  0.0529  0.0000  0.0000  0.0000  0.0000  0.0000 </r>
        <r>  0.0000  0.0176  0.1410  0.0529  0.0000  0.0000  0.0000  0.0000  0.0000 </r>
       </set>
       <set comment="band 5">
        <r>  0.0666  0.0125  0.0210  0.0322  0.0000  0.0000  0.0000  0.0000  0.0000 </r>
        <r>  0.0666  0.0125  0.0210  0.0322  0.0000  0.0000  0.0000  0.0000  0.0000 </r>
       </set>
       <set comment="band 6">
        <r>  0.0000  0.0125  0.1002  0.0376  0.0000  0.0000  0.0000  0.0000  0.0000 </r>
        <r>  0.0000  0.0125  0.1002  0.0376  0.0000  0.0000  0.0000  0.0000  0.0000 </r>
       </set>
       <set comment="band 7">
        <r>  0.0308  0.0190  0.0355  0.0537  0.0000  0.0000  0.0000  0.0000  0.0000 </r>
        <r>  0.0308  0.0190  0.0355  0.0537  0.0000  0.0000  0.0000  0.0000  0.0000 </r>
       </set>
       <set comment="band 8">
        <r>  0.0736  0.0770  0.0076  0.0358  0.0000  0.0000  0.0000  0.0000  0.0000 </r>
        <r>  0.0736  0.0770  0.0076  0.0358  0.0000  0.0000  0.0000  0.0000  0.0000 </r>
       </set>
      </set>
      <set comment="kpoint 7">
       <set comment="band 1">
        <r>  0.1939  0.0074  0.0149  0.0223  0.0000  0.0000  0.0000  0.0000  0.0000 </r>
        <r>  0.1939  0.0074  0.0149  0.0223  0.0000  0.0000  0.0000  0.0000  0.0000 </r>
       </set>
       <set comment="band 2">
        <r>  0.1939  0.0074  0.0149  0.0223  0.0000  0.0000  0.0000  0.0000  0.0000 </r>
        <r>  0.1939  0.0074  0.0149  0.0223  0.0000  0.0000  0.0000  0.0000  0.0000 </r>
       </set>
       <set comment="band 3">
        <r>  0.0000  0.0165  0.1318  0.0494  0.0000  0.0000  0.0000  0.0000  0.0000 </r>
        <r>  0.0000  0.0165  0.1318  0.0494  0.0000  0.0000  0.0000  0.0000  0.0000 </r>
       </set>
       <set comment="band 4">
        <r>  0.0000  0.1483  0.0000  0.0494  0.0000  0.0000  0.0000  0.0000  0.0000 </r>
        <r>  0.0000  0.1483  0.0000  0.0494  0.0000  0.0000  0.0000  0.0000  0.0000 </r>
       </set>
       <set comment="band 5">
        <r>  0.0519  0.0061  0.0122  0.0184  0.0000  0.0000  0.0000  0.0000  0.0000 </r>
        <r>  0.0519  0.0061  0.0122  0.0184  0.0000  0.0000  0.0000  0.0000  0.0000 </r>
       </set>
       <set comment="band 6">
        <r>  0.0519  0.0061  0.0122  0.0184  0.0000  0.0000  0.0000  0.0000  0.0000 </r>
        <r>  0.0519  0.0061  0.0122  0.0184  0.0000  0.0000  0.0000  0.0000  0.0000 </r>
       </set>
       <set comment="band 7">
        <r>  0.0000  0.0204  0.1629  0.0611  0.0000  0.0000  0.0000  0.0000  0.0000 </r>
        <r>  0.0000  0.0204  0.1629  0.0611  0.0000  0.0000  0.0000  0.0000  0.0000 </r>
       </set>
       <set comment="band 8">
        <r>  0.0000  0.1833  0.0000  0.0611  0.0000  0.0000  0.0000  0.0000  0.0000 </r>
        <r>  0.0000  0.1833  0.0000  0.0611  0.0000  0.0000  0.0000  0.0000  0.0000 </r>
       </set>
      </set>
      <set comment="kpoint 8">
       <set comment="band 1">
        <r>  0.2049  0.0173  0.0139  0.0104  0.0000  0.0000  0.0000  0.0000  0.0000 </r>
        <r>  0.2049  0.0173  0.0139  0.0104  0.0000  0.0000  0.0000  0.0000  0.0000 </r>
       </set>
       <set comment="band 2">
        <r>  0.2049  0.0173  0.0139  0.0104  0.0000  0.0000  0.0000  0.0000  0.0000 </r>
        <r>  0.2049  0.0173  0.0139  0.0104  0.0000  0.0000  0.0000  0.0000  0.0000 </r>
       </set>
       <set comment="band 3">
        <r>  0.0000  0.0099  0.0537  0.0978  0.0000  0.0000  0.0000  0.0000  0.0000 </r>
        <r>  0.0000  0.0099  0.0537  0.0978  0.0000  0.0000  0.0000  0.0000  0.0000 </r>
       </set>
       <set comment="band 4">
        <r>  0.0000  0.0898  0.0539  0.0177  0.0000  0.0000  0.0000  0.0000  0.0000 </r>
        <r>  0.0000  0.0898  0.0539  0.0177  0.0000  0.0000  0.0000  0.0000  0.0000 </r>
       </set>
       <set comment="band 5">
        <r>  0.0000  0.0156  0.0290  0.0423  0.0000  0.0000  0.0000  0.0000  0.0000 </r>
        <r>  0.0000  0.0156  0.0290  0.0423  0.0000  0.0000  0.0000  0.0000  0.0000 </r>
       </set>
       <set comment="band 6">
        <r>  0.0000  0.0134  0.0290  0.0446  0.0000  0.0000  0.0000  0.0000  0.0000 </r>
        <r>  0.0000  0.0134  0.0290  0.0446  0.0000  0.0000  0.0000  0.0000  0.0000 </r>
       </set>
       <set comment="band 7">
        <r>  0.0619  0.0444  0.0355  0.0266  0.0000  0.0000  0.0000  0.0000  0.0000 </r>
        <r>  0.0619  0.0444  0.0355  0.0266  0.0000  0.0000  0.0000  0.0000  0.0000 </r>
       </set>
       <set comment="band 8">
        <r>  0.0619  0.0444  0.0355  0.0266  0.0000  0.0000  0.0000  0.0000  0.0000 </r>
        <r>  0.0619  0.0444  0.0355  0.0266  0.0000  0.0000  0.0000  0.0000  0.0000 </r>
       </set>
      </set>
     </set>
    </set>
   </array>
  </projected>
 </calculation>
 <structure name="finalpos" >
  <crystal>
   <varray name="basis" >
    <v>       3.86697465       0.00000000       0.00000000 </v>
    <v>       1.93348733       3.34889828       0.00000000 </v>
    <v>       1.93348733       1.11629943       3.15737158 </v>
   </varray>
   <i name="volume">     40.88829271 </i>
   <varray name="rec_basis" >
    <v>       0.25860009      -0.14930283      -0.10557305 </v>
    <v>       0.00000000       0.29860567      -0.10557305 </v>
    <v>       0.00000000       0.00000000       0.31671914 </v>
   </varray>
  </crystal>
  <varray name="positions" >
   <v>       0.25000000       0.25000000       0.25000000 </v>
   <v>       0.00000000       0.00000000       0.00000000 </v>
  </varray>
 </structure>
</modeling>
