unknown system                          
   1.0000000000000000     
     3.866975    0.000000    0.000000
     1.933487    3.348898    0.000000
     1.933487    1.116299    3.157372
   Si
     2
Direct
  0.250000  0.250000  0.250000
  0.000000  0.000000  0.000000

   32   32   32
 -.77815549770E+01 -.59918710164E+01 -.12191341350E+01 0.50269087262E+01 0.10942960218E+02
 0.15127832287E+02 0.16996819347E+02 0.16811177475E+02 0.15380369049E+02 0.13580318211E+02
 0.11822964749E+02 0.10254959848E+02 0.89557085994E+01 0.79491619132E+01 0.72369322177E+01
 0.68132001062E+01 0.66725151654E+01 0.68132047715E+01 0.72369654200E+01 0.79491665411E+01
 0.89558319403E+01 0.10255049709E+02 0.11822810860E+02 0.13580209339E+02 0.15380448175E+02
 0.16811195360E+02 0.16996812800E+02 0.15127851432E+02 0.10942987034E+02 0.50269616796E+01
 -.12191065870E+01 -.59918617130E+01 -.59918710164E+01 -.24919866530E+01 0.33445995408E+01
 0.97060804633E+01 0.14886557594E+02 0.17878801833E+02 0.18582340390E+02 0.17610888121E+02
 0.15894690295E+02 0.14082399322E+02 0.12389818148E+02 0.10925817473E+02 0.97324712908E+01
 0.88295296180E+01 0.82227903671E+01 0.79182200245E+01 0.79181443234E+01 0.82227454369E+01
 0.88294628554E+01 0.97324172389E+01 0.10925595892E+02 0.12390011520E+02 0.14082424217E+02
 0.15894723062E+02 0.17610755017E+02 0.18582501474E+02 0.17878416692E+02 0.14886897967E+02
 0.97055998621E+01 0.33443792307E+01 -.24919694461E+01 -.59925169251E+01 -.12191341349E+01
 0.33445995409E+01 0.92302690256E+01 0.14674630991E+02 0.18373396293E+02 0.19853294529E+02
 0.19451284646E+02 0.17980423162E+02 0.16224476442E+02 0.14506385358E+02 0.12953891453E+02
 0.11628400693E+02 0.10562696126E+02 0.97765754526E+01 0.92940984909E+01 0.91301817182E+01
 0.92941474417E+01 0.97766985307E+01 0.10562930363E+02 0.11628598820E+02 0.12953666261E+02
 0.14506262613E+02 0.16224588217E+02 0.17980522521E+02 0.19450997749E+02 0.19853378265E+02
 0.18373007857E+02 0.14674797257E+02 0.92298624202E+01 0.33444319429E+01 -.12181352589E+01
 -.29404153579E+01 0.50269087265E+01 0.97060804635E+01 0.14674630991E+02 0.18530643758E+02
 0.20517499021E+02 0.20664994494E+02 0.19574028140E+02 0.18012714544E+02 0.16393944320E+02
 0.14861526531E+02 0.13494509000E+02 0.12327576555E+02 0.11394704702E+02 0.10736037816E+02
 0.10393970881E+02 0.10393944886E+02 0.10735858365E+02 0.11394249432E+02 0.12327265693E+02
 0.13494853823E+02 0.14861778999E+02 0.16393779015E+02 0.18012663699E+02 0.19574184705E+02
 0.20664914747E+02 0.20517842039E+02 0.18530380229E+02 0.14674717531E+02 0.97058598108E+01
 0.50267826959E+01 0.21803957386E+01 0.21803689875E+01 0.10942960218E+02 0.14886557594E+02
 0.18373396294E+02 0.20517499021E+02 0.21089753127E+02 0.20439540500E+02 0.19208739523E+02
 0.17823026256E+02 0.16441691750E+02 0.15147995073E+02 0.13974640855E+02 0.12957840167E+02
 0.12153521129E+02 0.11632333631E+02 0.11450805912E+02 0.11632596125E+02 0.12154259725E+02
 0.12958099929E+02 0.13973940943E+02 0.15147769806E+02 0.16442075588E+02 0.17823014139E+02
 0.19208530505E+02 0.20439636520E+02 0.21089397896E+02 0.20517402490E+02 0.18373640744E+02
 0.14886320155E+02 0.10943532458E+02 0.78110697854E+01 0.66177493480E+01 0.78107889100E+01
 0.15127832287E+02 0.17878801833E+02 0.19853294530E+02 0.20664994494E+02 0.20439540500E+02
 0.19629865171E+02 0.18596001529E+02 0.17490638384E+02 0.16393978505E+02 0.15328923188E+02
 0.14324407800E+02 0.13439481036E+02 0.12764617012E+02 0.12395135196E+02 0.12394989578E+02
 0.12764039442E+02 0.13439529004E+02 0.14325553713E+02 0.15328964858E+02 0.16393330696E+02
 0.17490968636E+02 0.18596058086E+02 0.19629762868E+02 0.20439640131E+02 0.20665294181E+02
 0.19852942304E+02 0.17879173214E+02 0.15126979462E+02 0.12434588688E+02 0.10766015905E+02
 0.10766079437E+02 0.12435231683E+02 0.16996819347E+02 0.18582340391E+02 0.19451284646E+02
 0.19574028140E+02 0.19208739523E+02 0.18596001529E+02 0.17858829754E+02 0.17065327297E+02
 0.16224145213E+02 0.15346291320E+02 0.14475029111E+02 0.13700810344E+02 0.13152872371E+02
 0.12953773066E+02 0.13152792248E+02 0.13700164020E+02 0.14473701161E+02 0.15346981604E+02
 0.16224846099E+02 0.17064616192E+02 0.17859103453E+02 0.18595926165E+02 0.19208731181E+02
 0.19573575562E+02 0.19451730931E+02 0.18581483110E+02 0.16997301294E+02 0.15106217548E+02
 0.13563729288E+02 0.12967641406E+02 0.13563110752E+02 0.15105464874E+02 0.16811177475E+02
 0.17610888121E+02 0.17980423162E+02 0.18012714544E+02 0.17823026256E+02 0.17490638384E+02
 0.17065327297E+02 0.16537711985E+02 0.15894707978E+02 0.15147612987E+02 0.14359892434E+02
 0.13671968677E+02 0.13264198946E+02 0.13264396284E+02 0.13672697590E+02 0.14360162843E+02
 0.15146095595E+02 0.15894743205E+02 0.16538707146E+02 0.17064459139E+02 0.17491269526E+02
 0.17822564597E+02 0.18013559244E+02 0.17979596396E+02 0.17611716863E+02 0.16811469471E+02
 0.15680974049E+02 0.14554043851E+02 0.13846992062E+02 0.13847492872E+02 0.14554476245E+02
 0.15682066716E+02 0.15380369049E+02 0.15894690295E+02 0.16224476442E+02 0.16393944320E+02
 0.16441691750E+02 0.16393978505E+02 0.16224145213E+02 0.15894707978E+02 0.15380636503E+02
 0.14697248710E+02 0.13957518236E+02 0.13371460480E+02 0.13147033231E+02 0.13371860863E+02
 0.13958456111E+02 0.14698109538E+02 0.15379246576E+02 0.15894693212E+02 0.16225050403E+02
 0.16393006018E+02 0.16442535034E+02 0.16393008521E+02 0.16225052986E+02 0.15894683757E+02
 0.15379248779E+02 0.14698148988E+02 0.13958552360E+02 0.13371872124E+02 0.13147185034E+02
 0.13371510709E+02 0.13957772479E+02 0.14697209853E+02 0.13580318211E+02 0.14082399322E+02
 0.14506385358E+02 0.14861526531E+02 0.15147995073E+02 0.15328923188E+02 0.15346291320E+02
 0.15147612987E+02 0.14697248710E+02 0.14046070450E+02 0.13381978509E+02 0.12959627831E+02
 0.12959548998E+02 0.13382171020E+02 0.14047109570E+02 0.14698166404E+02 0.15146107629E+02
 0.15346757733E+02 0.15329268528E+02 0.15147409240E+02 0.14862284479E+02 0.14506258437E+02
 0.14081993679E+02 0.13581159915E+02 0.13018111602E+02 0.12451481566E+02 0.11977056042E+02
 0.11701716695E+02 0.11701817797E+02 0.11977480044E+02 0.12452542602E+02 0.13018006849E+02
 0.11822964749E+02 0.12389818148E+02 0.12953891453E+02 0.13494509000E+02 0.13974640855E+02
 0.14324407800E+02 0.14475029111E+02 0.14359892434E+02 0.13957518236E+02 0.13381978509E+02
 0.12873190859E+02 0.12669664499E+02 0.12872676314E+02 0.13381932701E+02 0.13958830935E+02
 0.14360176822E+02 0.14473900040E+02 0.14325222708E+02 0.13974302070E+02 0.13494441094E+02
 0.12953599982E+02 0.12390319162E+02 0.11822472732E+02 0.11261429575E+02 0.10735355962E+02
 0.10291153858E+02 0.99905422519E+01 0.98834295785E+01 0.99903430977E+01 0.10290261846E+02
 0.10734922583E+02 0.11261937925E+02 0.10254959848E+02 0.10925817473E+02 0.11628400693E+02
 0.12327576555E+02 0.12957840167E+02 0.13439481036E+02 0.13700810344E+02 0.13671968677E+02
 0.13371460480E+02 0.12959627830E+02 0.12669664499E+02 0.12669442710E+02 0.12959297846E+02
 0.13371473250E+02 0.13673409713E+02 0.13699846216E+02 0.13439577178E+02 0.12958073897E+02
 0.12327288763E+02 0.11628974321E+02 0.10925182364E+02 0.10255432950E+02 0.96402928436E+01
 0.90980362728E+01 0.86507016991E+01 0.83283579900E+01 0.81584142689E+01 0.81587316637E+01
 0.83287318418E+01 0.86516230674E+01 0.90977751817E+01 0.96400154697E+01 0.89557085994E+01
 0.97324712908E+01 0.10562696126E+02 0.11394704702E+02 0.12153521129E+02 0.12764617012E+02
 0.13152872371E+02 0.13264198945E+02 0.13147033230E+02 0.12959548998E+02 0.12872676313E+02
 0.12959297845E+02 0.13146707630E+02 0.13265307016E+02 0.13153037553E+02 0.12763819957E+02
 0.12154366033E+02 0.11394172689E+02 0.10562621501E+02 0.97325898077E+01 0.89557076981E+01
 0.82626071916E+01 0.76702944816E+01 0.71909256680E+01 0.68361557074E+01 0.66173867818E+01
 0.65431368387E+01 0.66171120229E+01 0.68357310488E+01 0.71905629407E+01 0.76704331082E+01
 0.82629659523E+01 0.79491619132E+01 0.88295296180E+01 0.97765754526E+01 0.10736037816E+02
 0.11632333631E+02 0.12395135196E+02 0.12953773066E+02 0.13264396284E+02 0.13371860863E+02
 0.13382171019E+02 0.13381932701E+02 0.13371473250E+02 0.13265307016E+02 0.12953989314E+02
 0.12394405527E+02 0.11632694177E+02 0.10735963724E+02 0.97769527317E+01 0.88294024110E+01
 0.79491142202E+01 0.71719077494E+01 0.65154050063E+01 0.59873814067E+01 0.55901986848E+01
 0.53250281346E+01 0.51922824256E+01 0.51924438103E+01 0.53251666124E+01 0.55904262852E+01
 0.59875984846E+01 0.65152323906E+01 0.71717046786E+01 0.72369322177E+01 0.82227903671E+01
 0.92940984909E+01 0.10393970881E+02 0.11450805912E+02 0.12394989578E+02 0.13152792248E+02
 0.13672697590E+02 0.13958456111E+02 0.14047109569E+02 0.13958830935E+02 0.13673409713E+02
 0.13153037553E+02 0.12394405527E+02 0.11451259939E+02 0.10393838872E+02 0.92937808677E+01
 0.82229251872E+01 0.72369262528E+01 0.63723197387E+01 0.56459013298E+01 0.50620305574E+01
 0.46170863226E+01 0.43054866152E+01 0.41211631986E+01 0.40602758890E+01 0.41210166609E+01
 0.43053317686E+01 0.46169175454E+01 0.50618633688E+01 0.56462218316E+01 0.63724385407E+01
 0.68132001062E+01 0.79182200245E+01 0.91301817182E+01 0.10393944886E+02 0.11632596125E+02
 0.12764039442E+02 0.13700164020E+02 0.14360162843E+02 0.14698109537E+02 0.14698166403E+02
 0.14360176821E+02 0.13699846215E+02 0.12763819957E+02 0.11632694177E+02 0.10393838872E+02
 0.91305105886E+01 0.79181417274E+01 0.68131640565E+01 0.58512632380E+01 0.50474547182E+01
 0.44019766507E+01 0.39060310852E+01 0.35478469027E+01 0.33161288750E+01 0.32024818696E+01
 0.32024939505E+01 0.33162527961E+01 0.35480030307E+01 0.39062026731E+01 0.44020585320E+01
 0.50470813807E+01 0.58511483467E+01 0.66725151654E+01 0.79181443234E+01 0.92941474417E+01
 0.10735858365E+02 0.12154259725E+02 0.13439529004E+02 0.14473701161E+02 0.15146095595E+02
 0.15379246576E+02 0.15146107629E+02 0.14473900040E+02 0.13439577178E+02 0.12154366033E+02
 0.10735963724E+02 0.92937808677E+01 0.79181417274E+01 0.66725398202E+01 0.55948300138E+01
 0.46989337053E+01 0.39814618977E+01 0.34282151715E+01 0.30213559318E+01 0.27438832421E+01
 0.25828083591E+01 0.25300171274E+01 0.25828505111E+01 0.27438325216E+01 0.30212886451E+01
 0.34280959050E+01 0.39813878965E+01 0.46992656677E+01 0.55948247620E+01 0.68132047715E+01
 0.82227454369E+01 0.97766985307E+01 0.11394249432E+02 0.12958099929E+02 0.14325553713E+02
 0.15346981604E+02 0.15894743205E+02 0.15894693212E+02 0.15346757733E+02 0.14325222708E+02
 0.12958073897E+02 0.11394172689E+02 0.97769527317E+01 0.82229251872E+01 0.68131640565E+01
 0.55948300138E+01 0.45846261490E+01 0.37774810454E+01 0.31545654479E+01 0.26919374490E+01
 0.23664085412E+01 0.21596307891E+01 0.20592389137E+01 0.20592384907E+01 0.21595625149E+01
 0.23664303833E+01 0.26919094997E+01 0.31546696343E+01 0.37775214689E+01 0.45843673825E+01
 0.55948920962E+01 0.72369654200E+01 0.88294628554E+01 0.10562930363E+02 0.12327265693E+02
 0.13973940943E+02 0.15328964858E+02 0.16224846099E+02 0.16538707146E+02 0.16225050403E+02
 0.15329268528E+02 0.13974302070E+02 0.12327288763E+02 0.10562621501E+02 0.88294024110E+01
 0.72369262528E+01 0.58512632380E+01 0.46989337053E+01 0.37774810454E+01 0.30655637225E+01
 0.25338034468E+01 0.21525541812E+01 0.18973551192E+01 0.17508265316E+01 0.17030704360E+01
 0.17508303743E+01 0.18973883214E+01 0.21525193189E+01 0.25338002866E+01 0.30654905183E+01
 0.37775041253E+01 0.46992940930E+01 0.58511160953E+01 0.79491665411E+01 0.97324172389E+01
 0.11628598820E+02 0.13494853823E+02 0.15147769806E+02 0.16393330696E+02 0.17064616192E+02
 0.17064459139E+02 0.16393006018E+02 0.15147409240E+02 0.13494441094E+02 0.11628974321E+02
 0.97325898077E+01 0.79491142202E+01 0.63723197387E+01 0.50474547182E+01 0.39814618977E+01
 0.31545654479E+01 0.25338034468E+01 0.20833337790E+01 0.17719822543E+01 0.15764488561E+01
 0.14821471074E+01 0.14821254788E+01 0.15764555692E+01 0.17719434492E+01 0.20834172200E+01
 0.25337949775E+01 0.31546525665E+01 0.39813242675E+01 0.50470836315E+01 0.63724509253E+01
 0.89558319403E+01 0.10925595892E+02 0.12953666261E+02 0.14861778999E+02 0.16442075588E+02
 0.17490968636E+02 0.17859103453E+02 0.17491269526E+02 0.16442535034E+02 0.14862284479E+02
 0.12953599982E+02 0.10925182364E+02 0.89557076981E+01 0.71719077494E+01 0.56459013298E+01
 0.44019766507E+01 0.34282151715E+01 0.26919374490E+01 0.21525541812E+01 0.17719822543E+01
 0.15200128758E+01 0.13763343857E+01 0.13296020951E+01 0.13763374904E+01 0.15200140717E+01
 0.17720352636E+01 0.21525319726E+01 0.26919813742E+01 0.34281186776E+01 0.44020719902E+01
 0.56462723655E+01 0.71716024294E+01 0.10255049709E+02 0.12390011520E+02 0.14506262613E+02
 0.16393779015E+02 0.17823014139E+02 0.18596058086E+02 0.18595926165E+02 0.17822564597E+02
 0.16393008521E+02 0.14506258437E+02 0.12390319162E+02 0.10255432950E+02 0.82626071916E+01
 0.65154050063E+01 0.50620305574E+01 0.39060310852E+01 0.30213559318E+01 0.23664085412E+01
 0.18973551192E+01 0.15764488561E+01 0.13763343857E+01 0.12801172340E+01 0.12801427143E+01
 0.13763204800E+01 0.15764705832E+01 0.18972594060E+01 0.23664099960E+01 0.30212361174E+01
 0.39061879765E+01 0.50618724525E+01 0.65151855188E+01 0.82629485604E+01 0.11822810860E+02
 0.14082424217E+02 0.16224588217E+02 0.18012663699E+02 0.19208530505E+02 0.19629762868E+02
 0.19208731181E+02 0.18013559244E+02 0.16225052986E+02 0.14081993679E+02 0.11822472732E+02
 0.96402928436E+01 0.76702944816E+01 0.59873814067E+01 0.46170863226E+01 0.35478469027E+01
 0.27438832421E+01 0.21596307891E+01 0.17508265316E+01 0.14821471074E+01 0.13296020951E+01
 0.12801427143E+01 0.13295957222E+01 0.14821535316E+01 0.17508083386E+01 0.21596913480E+01
 0.27438624569E+01 0.35479749394E+01 0.46169942890E+01 0.59876184909E+01 0.76705450479E+01
 0.96398933024E+01 0.13580209339E+02 0.15894723062E+02 0.17980522521E+02 0.19574184705E+02
 0.20439636520E+02 0.20439640131E+02 0.19573575562E+02 0.17979596396E+02 0.15894683757E+02
 0.13581159915E+02 0.11261429575E+02 0.90980362728E+01 0.71909256680E+01 0.55901986848E+01
 0.43054866152E+01 0.33161288750E+01 0.25828083591E+01 0.20592389137E+01 0.17030704360E+01
 0.14821254788E+01 0.13763374904E+01 0.13763204800E+01 0.14821535316E+01 0.17030326904E+01
 0.20592754065E+01 0.25827551136E+01 0.33162176033E+01 0.43052847331E+01 0.55903550212E+01
 0.71904550422E+01 0.90978232244E+01 0.11262204159E+02 0.15380448175E+02 0.17610755017E+02
 0.19450997749E+02 0.20664914747E+02 0.21089397896E+02 0.20665294181E+02 0.19451730931E+02
 0.17611716864E+02 0.15379248779E+02 0.13018111602E+02 0.10735355962E+02 0.86507016991E+01
 0.68361557074E+01 0.53250281346E+01 0.41211631986E+01 0.32024818696E+01 0.25300171274E+01
 0.20592384907E+01 0.17508303743E+01 0.15764555692E+01 0.15200140717E+01 0.15764705832E+01
 0.17508083386E+01 0.20592754065E+01 0.25299615318E+01 0.32026015170E+01 0.41211000610E+01
 0.53252617481E+01 0.68358255395E+01 0.86514954357E+01 0.10734840518E+02 0.13017968781E+02
 0.16811195361E+02 0.18582501474E+02 0.19853378266E+02 0.20517842039E+02 0.20517402490E+02
 0.19852942305E+02 0.18581483110E+02 0.16811469471E+02 0.14698148988E+02 0.12451481566E+02
 0.10291153858E+02 0.83283579900E+01 0.66173867818E+01 0.51922824256E+01 0.40602758890E+01
 0.32024939505E+01 0.25828505111E+01 0.21595625149E+01 0.18973883214E+01 0.17719434492E+01
 0.17720352636E+01 0.18972594060E+01 0.21596913480E+01 0.25827551136E+01 0.32026015170E+01
 0.40600103304E+01 0.51924004741E+01 0.66171031756E+01 0.83287425084E+01 0.10290424950E+02
 0.12452374836E+02 0.14697228143E+02 0.16996812801E+02 0.17878416692E+02 0.18373007857E+02
 0.18530380229E+02 0.18373640745E+02 0.17879173214E+02 0.16997301294E+02 0.15680974049E+02
 0.13958552360E+02 0.11977056042E+02 0.99905422519E+01 0.81584142689E+01 0.65431368387E+01
 0.51924438103E+01 0.41210166609E+01 0.33162527961E+01 0.27438325216E+01 0.23664303833E+01
 0.21525193189E+01 0.20834172200E+01 0.21525319726E+01 0.23664099960E+01 0.27438624569E+01
 0.33162176033E+01 0.41211000610E+01 0.51924004741E+01 0.65432933624E+01 0.81585223118E+01
 0.99904114072E+01 0.11977492944E+02 0.13958098700E+02 0.15681848254E+02 0.15127851433E+02
 0.14886897967E+02 0.14674797258E+02 0.14674717532E+02 0.14886320155E+02 0.15126979462E+02
 0.15106217548E+02 0.14554043851E+02 0.13371872124E+02 0.11701716694E+02 0.98834295785E+01
 0.81587316637E+01 0.66171120229E+01 0.53251666124E+01 0.43053317686E+01 0.35480030307E+01
 0.30212886451E+01 0.26919094997E+01 0.25338002866E+01 0.25337949775E+01 0.26919813742E+01
 0.30212361174E+01 0.35479749394E+01 0.43052847331E+01 0.53252617481E+01 0.66171031756E+01
 0.81585223118E+01 0.98834638505E+01 0.11701717199E+02 0.13371483725E+02 0.14554480445E+02
 0.15105809931E+02 0.10942987034E+02 0.97055998626E+01 0.92298624206E+01 0.97058598110E+01
 0.10943532458E+02 0.12434588688E+02 0.13563729288E+02 0.13846992062E+02 0.13147185034E+02
 0.11701817797E+02 0.99903430977E+01 0.83287318418E+01 0.68357310488E+01 0.55904262852E+01
 0.46169175454E+01 0.39062026731E+01 0.34280959050E+01 0.31546696343E+01 0.30654905183E+01
 0.31546525665E+01 0.34281186776E+01 0.39061879765E+01 0.46169942890E+01 0.55903550212E+01
 0.68358255395E+01 0.83287425084E+01 0.99904114072E+01 0.11701717199E+02 0.13147508153E+02
 0.13847155132E+02 0.13563529085E+02 0.12434892494E+02 0.50269616798E+01 0.33443792310E+01
 0.33444319431E+01 0.50267826959E+01 0.78110697852E+01 0.10766015905E+02 0.12967641406E+02
 0.13847492871E+02 0.13371510709E+02 0.11977480044E+02 0.10290261846E+02 0.86516230674E+01
 0.71905629407E+01 0.59875984846E+01 0.50618633688E+01 0.44020585320E+01 0.39813878965E+01
 0.37775214689E+01 0.37775041253E+01 0.39813242675E+01 0.44020719902E+01 0.50618724525E+01
 0.59876184909E+01 0.71904550422E+01 0.86514954357E+01 0.10290424950E+02 0.11977492944E+02
 0.13371483725E+02 0.13847155132E+02 0.12967779896E+02 0.10765930425E+02 0.78112626418E+01
 -.12191065869E+01 -.24919694460E+01 -.12181352589E+01 0.21803957384E+01 0.66177493476E+01
 0.10766079436E+02 0.13563110751E+02 0.14554476245E+02 0.13957772479E+02 0.12452542602E+02
 0.10734922583E+02 0.90977751817E+01 0.76704331082E+01 0.65152323906E+01 0.56462218316E+01
 0.50470813807E+01 0.46992656677E+01 0.45843673825E+01 0.46992940930E+01 0.50470836315E+01
 0.56462723655E+01 0.65151855188E+01 0.76705450479E+01 0.90978232244E+01 0.10734840518E+02
 0.12452374836E+02 0.13958098700E+02 0.14554480445E+02 0.13563529085E+02 0.10765930425E+02
 0.66181301006E+01 0.21805836035E+01 -.59918617129E+01 -.59925169251E+01 -.29404153580E+01
 0.21803689872E+01 0.78107889096E+01 0.12435231682E+02 0.15105464874E+02 0.15682066715E+02
 0.14697209853E+02 0.13018006849E+02 0.11261937925E+02 0.96400154697E+01 0.82629659523E+01
 0.71717046786E+01 0.63724385407E+01 0.58511483467E+01 0.55948247620E+01 0.55948920962E+01
 0.58511160953E+01 0.63724509253E+01 0.71716024294E+01 0.82629485604E+01 0.96398933024E+01
 0.11262204159E+02 0.13017968781E+02 0.14697228143E+02 0.15681848253E+02 0.15105809931E+02
 0.12434892494E+02 0.78112626416E+01 0.21805836034E+01 -.29404191127E+01 -.59921470755E+01
 -.24916215019E+01 0.33449616186E+01 0.97060655955E+01 0.14886676284E+02 0.17878707999E+02
 0.18582369709E+02 0.17610747818E+02 0.15894634935E+02 0.14082422886E+02 0.12390016373E+02
 0.10925746863E+02 0.97324256539E+01 0.88296052103E+01 0.82227743515E+01 0.79182263404E+01
 0.79181437631E+01 0.82227410585E+01 0.88294682778E+01 0.97324109877E+01 0.10925602201E+02
 0.12390006173E+02 0.14082427363E+02 0.15894719954E+02 0.17610731604E+02 0.18582583238E+02
 0.17878553466E+02 0.14887136688E+02 0.97057815370E+01 0.33446702797E+01 -.24915787199E+01
 -.59928900663E+01 -.24916215016E+01 0.23489036910E+01 0.86075705046E+01 0.14426100830E+02
 0.18427848930E+02 0.20101677458E+02 0.19786891126E+02 0.18322067111E+02 0.16538165706E+02
 0.14789138771E+02 0.13206430551E+02 0.11854638572E+02 0.10766267364E+02 0.99624285862E+01
 0.94685478864E+01 0.93007436679E+01 0.94685639573E+01 0.99625607690E+01 0.10766393171E+02
 0.11854817895E+02 0.13206447999E+02 0.14788998200E+02 0.16538156115E+02 0.18321919469E+02
 0.19786918760E+02 0.20102016190E+02 0.18427735423E+02 0.14426559903E+02 0.86072137589E+01
 0.23491379221E+01 -.24913941818E+01 -.43158493932E+01 0.33449616192E+01 0.86075705050E+01
 0.14233358081E+02 0.18669483418E+02 0.21059979816E+02 0.21413653442E+02 0.20361568734E+02
 0.18748689642E+02 0.17065293797E+02 0.15469372975E+02 0.14043983615E+02 0.12823546252E+02
 0.11845067553E+02 0.11152202726E+02 0.10791431123E+02 0.10791534602E+02 0.11152052374E+02
 0.11844804228E+02 0.12823202403E+02 0.14044046609E+02 0.15469559597E+02 0.17065259038E+02
 0.18748706423E+02 0.20361760339E+02 0.21413484441E+02 0.21060377734E+02 0.18669204902E+02
 0.14234028265E+02 0.86074920291E+01 0.33445321471E+01 0.15384090079E+00 0.15367477685E+00
 0.97060655965E+01 0.14426100830E+02 0.18669483418E+02 0.21387267484E+02 0.22285367808E+02
 0.21727469580E+02 0.20439345299E+02 0.18963355696E+02 0.17490715529E+02 0.16109142648E+02
 0.14850416737E+02 0.13754216626E+02 0.12881546352E+02 0.12313310606E+02 0.12114542960E+02
 0.12313450588E+02 0.12882048421E+02 0.13754842400E+02 0.14850183610E+02 0.16108765136E+02
 0.17490866448E+02 0.18963274438E+02 0.20439229623E+02 0.21727672130E+02 0.22285105987E+02
 0.21387680585E+02 0.18669073768E+02 0.14426315421E+02 0.97063953821E+01 0.59846419284E+01
 0.45714822339E+01 0.59855592769E+01 0.14886676285E+02 0.18427848931E+02 0.21059979816E+02
 0.22285367808E+02 0.22208715079E+02 0.21359335889E+02 0.20230216247E+02 0.19023587965E+02
 0.17823080648E+02 0.16651103625E+02 0.15535933586E+02 0.14542041824E+02 0.13774580234E+02
 0.13350931787E+02 0.13350704121E+02 0.13774146474E+02 0.14541196631E+02 0.15536440041E+02
 0.16651624705E+02 0.17822641901E+02 0.19023696591E+02 0.20230490020E+02 0.21359128412E+02
 0.22209159312E+02 0.22284880971E+02 0.21060217546E+02 0.18427585779E+02 0.14886535068E+02
 0.11475039412E+02 0.93753281228E+01 0.93754160462E+01 0.11474512025E+02 0.17878708000E+02
 0.20101677458E+02 0.21413653442E+02 0.21727469580E+02 0.21359335889E+02 0.20676415929E+02
 0.19853293366E+02 0.18963465788E+02 0.18012657542E+02 0.17006547211E+02 0.15983231781E+02
 0.15050010642E+02 0.14376121219E+02 0.14128965574E+02 0.14376504302E+02 0.15050599554E+02
 0.15982455614E+02 0.17005774240E+02 0.18013506726E+02 0.18963030936E+02 0.19853084770E+02
 0.20676727143E+02 0.21358982791E+02 0.21727891983E+02 0.21413629242E+02 0.20101893151E+02
 0.17879317613E+02 0.15301568318E+02 0.13225804044E+02 0.12428983345E+02 0.13226046591E+02
 0.15301988936E+02 0.18582369710E+02 0.19786891127E+02 0.20361568734E+02 0.20439345299E+02
 0.20230216247E+02 0.19853293366E+02 0.19363717587E+02 0.18748686536E+02 0.17980719459E+02
 0.17047186124E+02 0.16017974550E+02 0.15094102504E+02 0.14539095583E+02 0.14539301683E+02
 0.15094447407E+02 0.16019197680E+02 0.17047354243E+02 0.17979511800E+02 0.18749508563E+02
 0.19363708849E+02 0.19853041348E+02 0.20230659065E+02 0.20439076025E+02 0.20361482855E+02
 0.19787308473E+02 0.18581376555E+02 0.16925829571E+02 0.15300775777E+02 0.14289659653E+02
 0.14289540840E+02 0.15300526782E+02 0.16925710847E+02 0.17610747818E+02 0.18322067111E+02
 0.18748689642E+02 0.18963355696E+02 0.19023587965E+02 0.18963465788E+02 0.18748686536E+02
 0.18322584753E+02 0.17610788018E+02 0.16612140074E+02 0.15506261782E+02 0.14625572895E+02
 0.14287764048E+02 0.14625127746E+02 0.15505956474E+02 0.16613054300E+02 0.17611626900E+02
 0.18321084817E+02 0.18749399790E+02 0.18963120524E+02 0.19023608488E+02 0.18963121065E+02
 0.18749403585E+02 0.18321073076E+02 0.17611650148E+02 0.16613016132E+02 0.15505899027E+02
 0.14624976774E+02 0.14287690534E+02 0.14625264647E+02 0.15506328743E+02 0.16612504694E+02
 0.15894634935E+02 0.16538165706E+02 0.17065293797E+02 0.17490715529E+02 0.17823080648E+02
 0.18012657542E+02 0.17980719459E+02 0.17610788018E+02 0.16810790365E+02 0.15682122390E+02
 0.14554864372E+02 0.13847530253E+02 0.13847033799E+02 0.14554201546E+02 0.15680989840E+02
 0.16811572940E+02 0.17611654069E+02 0.17979653450E+02 0.18013502900E+02 0.17822618677E+02
 0.17491211538E+02 0.17064522306E+02 0.16538643460E+02 0.15894807435E+02 0.15146005681E+02
 0.14360276120E+02 0.13672673763E+02 0.13264681493E+02 0.13264164375E+02 0.13672280327E+02
 0.14359964467E+02 0.15147336401E+02 0.14082422886E+02 0.14789138771E+02 0.15469372975E+02
 0.16109142648E+02 0.16651103625E+02 0.17006547211E+02 0.17047186124E+02 0.16612140073E+02
 0.15682122390E+02 0.14506260118E+02 0.13521042434E+02 0.13137062611E+02 0.13521003901E+02
 0.14505603906E+02 0.15680824693E+02 0.16612886557E+02 0.17047407741E+02 0.17005703607E+02
 0.16651795753E+02 0.16108347779E+02 0.15470164775E+02 0.14788914009E+02 0.14081990835E+02
 0.13360210234E+02 0.12659736109E+02 0.12053765615E+02 0.11636211326E+02 0.11486234002E+02
 0.11636701767E+02 0.12054255454E+02 0.12659038481E+02 0.13359506786E+02 0.12390016373E+02
 0.13206430551E+02 0.14043983615E+02 0.14850416737E+02 0.15535933586E+02 0.15983231781E+02
 0.16017974550E+02 0.15506261781E+02 0.14554864371E+02 0.13521042433E+02 0.12851644908E+02
 0.12851841328E+02 0.13521048194E+02 0.14554170185E+02 0.15505646325E+02 0.16019035146E+02
 0.15982977847E+02 0.15535859236E+02 0.14850905302E+02 0.14043373331E+02 0.13206562896E+02
 0.12390241203E+02 0.11622711681E+02 0.10925229102E+02 0.10334526306E+02 0.98975415775E+01
 0.96636962165E+01 0.96633926729E+01 0.98971359530E+01 0.10334474388E+02 0.10926228716E+02
 0.11622750112E+02 0.10925746863E+02 0.11854638572E+02 0.12823546252E+02 0.13754216626E+02
 0.14542041824E+02 0.15050010642E+02 0.15094102503E+02 0.14625572894E+02 0.13847530252E+02
 0.13137062610E+02 0.12851841327E+02 0.13137146930E+02 0.13847476272E+02 0.14624446126E+02
 0.15094160862E+02 0.15050436632E+02 0.14541485502E+02 0.13754463277E+02 0.12823415860E+02
 0.11855073519E+02 0.10925243456E+02 0.10078414909E+02 0.93389256709E+01 0.87268215710E+01
 0.82638235709E+01 0.79737208904E+01 0.78749394567E+01 0.79740081711E+01 0.82641809474E+01
 0.87263309171E+01 0.93384141788E+01 0.10078221775E+02 0.97324256539E+01 0.10766267364E+02
 0.11845067553E+02 0.12881546352E+02 0.13774580234E+02 0.14376121219E+02 0.14539095582E+02
 0.14287764046E+02 0.13847033798E+02 0.13521003900E+02 0.13521048193E+02 0.13847476271E+02
 0.14287232611E+02 0.14538547924E+02 0.14377095647E+02 0.13774112580E+02 0.12881996219E+02
 0.11844899271E+02 0.10765944034E+02 0.97327285507E+01 0.87995464782E+01 0.79975565190E+01
 0.73409421825E+01 0.68393599737E+01 0.64996289671E+01 0.63282071006E+01 0.63279741489E+01
 0.64996462656E+01 0.68391977723E+01 0.73414483018E+01 0.79978654270E+01 0.87995589726E+01
 0.88296052103E+01 0.99624285862E+01 0.11152202726E+02 0.12313310606E+02 0.13350931787E+02
 0.14128965573E+02 0.14539301682E+02 0.14625127744E+02 0.14554201544E+02 0.14505603904E+02
 0.14554170184E+02 0.14624446125E+02 0.14538547924E+02 0.14129424185E+02 0.13350607473E+02
 0.12313153059E+02 0.11152348834E+02 0.99626652381E+01 0.88295018315E+01 0.78101830453E+01
 0.69387360139E+01 0.62273000733E+01 0.56790491875E+01 0.52906490751E+01 0.50595933520E+01
 0.49825155068E+01 0.50595492514E+01 0.52905407831E+01 0.56790707928E+01 0.62269374968E+01
 0.69384764864E+01 0.78103513432E+01 0.82227743515E+01 0.94685478864E+01 0.10791431123E+02
 0.12114542960E+02 0.13350704121E+02 0.14376504301E+02 0.15094447406E+02 0.15505956473E+02
 0.15680989839E+02 0.15680824692E+02 0.15505646325E+02 0.15094160862E+02 0.14377095647E+02
 0.13350607473E+02 0.12114817778E+02 0.10791472613E+02 0.94682285176E+01 0.82229284442E+01
 0.71108410343E+01 0.61638432459E+01 0.53921397011E+01 0.47929744960E+01 0.43567232805E+01
 0.40730697499E+01 0.39335320269E+01 0.39336180599E+01 0.40730939608E+01 0.43568223198E+01
 0.47929572458E+01 0.53925955616E+01 0.61640189780E+01 0.71107219989E+01 0.79182263403E+01
 0.93007436679E+01 0.10791534602E+02 0.12313450588E+02 0.13774146474E+02 0.15050599554E+02
 0.16019197680E+02 0.16613054299E+02 0.16811572939E+02 0.16612886556E+02 0.16019035146E+02
 0.15050436632E+02 0.13774112580E+02 0.12313153059E+02 0.10791472613E+02 0.93009997903E+01
 0.79181563148E+01 0.66948953203E+01 0.56595869685E+01 0.48184702242E+01 0.41634015515E+01
 0.36782302314E+01 0.33461559362E+01 0.31528604180E+01 0.30895300450E+01 0.31528168627E+01
 0.33461681557E+01 0.36781515357E+01 0.41633660773E+01 0.48179877454E+01 0.56594352809E+01
 0.66950580488E+01 0.79181437631E+01 0.94685639573E+01 0.11152052374E+02 0.12882048421E+02
 0.14541196631E+02 0.15982455614E+02 0.17047354242E+02 0.17611626899E+02 0.17611654069E+02
 0.17047407741E+02 0.15982977847E+02 0.14541485502E+02 0.12881996219E+02 0.11152348834E+02
 0.94682285176E+01 0.79181563148E+01 0.65568997053E+01 0.54115715071E+01 0.44848122953E+01
 0.37630325714E+01 0.32236414575E+01 0.28429948516E+01 0.26008241473E+01 0.24832714291E+01
 0.24832607981E+01 0.26009137418E+01 0.28430341696E+01 0.32237791302E+01 0.37630210648E+01
 0.44852447470E+01 0.54115926248E+01 0.65567771516E+01 0.82227410585E+01 0.99625607690E+01
 0.11844804228E+02 0.13754842400E+02 0.15536440041E+02 0.17005774240E+02 0.17979511800E+02
 0.18321084817E+02 0.17979653450E+02 0.17005703607E+02 0.15535859236E+02 0.13754463277E+02
 0.11844899271E+02 0.99626652381E+01 0.82229284442E+01 0.66948953203E+01 0.54115715071E+01
 0.43754347535E+01 0.35689880419E+01 0.29636067343E+01 0.25286615962E+01 0.22373461938E+01
 0.20702179676E+01 0.20157422208E+01 0.20701962307E+01 0.22372529508E+01 0.25285559570E+01
 0.29634898387E+01 0.35689919292E+01 0.43750787788E+01 0.54115962652E+01 0.66950690677E+01
 0.88294682778E+01 0.10766393171E+02 0.12823202403E+02 0.14850183610E+02 0.16651624705E+02
 0.18013506726E+02 0.18749508563E+02 0.18749399790E+02 0.18013502900E+02 0.16651795753E+02
 0.14850905302E+02 0.12823415860E+02 0.10765944034E+02 0.88295018315E+01 0.71108410343E+01
 0.56595869685E+01 0.44848122953E+01 0.35689880419E+01 0.28790613829E+01 0.23778345589E+01
 0.20314818448E+01 0.18142818936E+01 0.17096117592E+01 0.17096159740E+01 0.18142716004E+01
 0.20315453830E+01 0.23778972210E+01 0.28792062343E+01 0.35690164098E+01 0.44852753254E+01