 vasp.5.4.4.18Apr17-6-g9f103f2a35 (build Oct  1 2021 11:57:32) complex           
 executed on        HPECrayEX-GNU date 2022.01.28  14:50:47
 running on  128 total cores
 distrk:  each k-point on   64 cores,    2 groups
 distr:  one band on NCORES_PER_BAND=  16 cores,    4 groups


--------------------------------------------------------------------------------------------------------


 INCAR:
 POTCAR:    PAW_PBE Si 05Jan2001                  

 ----------------------------------------------------------------------------- 
|                                                                             |
|           W    W    AA    RRRRR   N    N  II  N    N   GGGG   !!!           |
|           W    W   A  A   R    R  NN   N  II  NN   N  G    G  !!!           |
|           W    W  A    A  R    R  N N  N  II  N N  N  G       !!!           |
|           W WW W  AAAAAA  RRRRR   N  N N  II  N  N N  G  GGG   !            |
|           WW  WW  A    A  R   R   N   NN  II  N   NN  G    G                |
|           W    W  A    A  R    R  N    N  II  N    N   GGGG   !!!           |
|                                                                             |
|      You have enabled k-point parallelism (KPAR>1).                         |
|      This developmental code was originally  written by Paul Kent at ORNL,  |
|      and carefully double checked in Vienna.                                |
|      GW as well as linear response parallelism added by Martijn Marsman     |
|      and Georg Kresse.                                                      |
|      Carefully verify results versus KPAR=1.                                |
|      Report problems to Paul Kent and Vienna.                               |
|                                                                             |
 ----------------------------------------------------------------------------- 

 POTCAR:    PAW_PBE Si 05Jan2001                  
   SHA256 =  79d9987ad8750f624c4d6acb2a16d13abf6a777132adc04dc6c8399be72b42bb Si
   COPYR  = (c) Copyright 05Jan2001 Georg Kresse                                
   COPYR  = This file is part of the software VASP. Any use, copying, and all ot
   COPYR  = If you do not have a valid VASP license, you may not use, copy or di
   VRHFIN =Si: s2p2                                                             
   LEXCH  = PE                                                                  
   EATOM  =   103.0669 eV,    7.5752 Ry                                         
                                                                                
   TITEL  = PAW_PBE Si 05Jan2001                                                
   LULTRA =        F    use ultrasoft PP ?                                      
   IUNSCR =        1    unscreen: 0-lin 1-nonlin 2-no                           
   RPACOR =    1.500    partial core radius                                     
   POMASS =   28.085; ZVAL   =    4.000    mass and valenz                      
   RCORE  =    1.900    outmost cutoff radius                                   
   RWIGS  =    2.480; RWIGS  =    1.312    wigner-seitz radius (au A)           
   ENMAX  =  245.345; ENMIN  =  184.009 eV                                      
   ICORE  =        2    local potential                                         
   LCOR   =        T    correct aug charges                                     
   LPAW   =        T    paw PP                                                  
   EAUG   =  322.069                                                            
   DEXC   =    0.000                                                            
   RMAX   =    1.950    core radius for proj-oper                               
   RAUG   =    1.300    factor for augmentation sphere                          
   RDEP   =    1.993    radius for radial grids                                 
   RDEPT  =    1.837    core radius for aug-charge                              
                                                                                
   Atomic configuration                                                         
    6 entries                                                                   
     n  l   j            E        occ.                                          
     1  0  0.50     -1785.8828   2.0000                                         
     2  0  0.50      -139.4969   2.0000                                         
     2  1  1.50       -95.5546   6.0000                                         
     3  0  0.50       -10.8127   2.0000                                         
     3  1  0.50        -4.0811   2.0000                                         
     3  2  1.50        -4.0817   0.0000                                         
   Description                                                                  
     l       E           TYP  RCUT    TYP  RCUT                                 
     0    -10.8127223     23  1.900                                             
     0     -7.6451159     23  1.900                                             
     1     -4.0811372     23  1.900                                             
     1      2.4879257     23  1.900                                             
     2     -4.0817478      7  1.900                                             
  local pseudopotential read in
  partial core-charges read in
  partial kinetic energy density read in
  atomic valenz-charges read in
  non local Contribution for L=           0  read in
    real space projection operators read in
  non local Contribution for L=           0  read in
    real space projection operators read in
  non local Contribution for L=           1  read in
    real space projection operators read in
  non local Contribution for L=           1  read in
    real space projection operators read in
    PAW grid and wavefunctions read in

   number of l-projection  operators is LMAX  =           4
   number of lm-projection operators is LMMAX =           8

  PAW_PBE Si 05Jan2001                  :
 energy of atom  1       EATOM= -103.0669
 kinetic energy error for atom=    0.0056 (will be added to EATOM!!)


 POSCAR: cif2pos.py                              
  positions in direct lattice
  velocities in cartesian coordinates
 exchange correlation table for  LEXCH =        8
   RHO(1)=    0.500       N(1)  =     2000
   RHO(2)=  100.500       N(2)  =     4000



--------------------------------------------------------------------------------------------------------


 ion  position               nearest neighbor table
   1  0.250  0.250  0.250-   2 2.37   2 2.37   2 2.37   2 2.37
   2  0.000  0.000  0.000-   1 2.37   1 2.37   1 2.37   1 2.37

  LATTYP: Found a face centered cubic cell.
 ALAT       =     5.4687279996
  
  Lattice vectors:
  
 A1 = (   3.8669746500,   0.0000000000,   0.0000000000)
 A2 = (   1.9334873300,   3.3488982800,   0.0000000000)
 A3 = (   1.9334873300,   1.1162994300,   3.1573715800)


Analysis of symmetry for initial positions (statically):
=====================================================================
 Subroutine PRICEL returns:
 Original cell was already a primitive cell.
 

 Routine SETGRP: Setting up the symmetry group for a 
 face centered cubic supercell.


 Subroutine GETGRP returns: Found 48 space group operations
 (whereof 24 operations were pure point group operations)
 out of a pool of 48 trial point group operations.


The static configuration has the point symmetry T_d .
 The point group associated with its full space group is O_h .


Analysis of symmetry for dynamics (positions and initial velocities):
=====================================================================
 Subroutine PRICEL returns:
 Original cell was already a primitive cell.
 

 Routine SETGRP: Setting up the symmetry group for a 
 face centered cubic supercell.


 Subroutine GETGRP returns: Found 48 space group operations
 (whereof 24 operations were pure point group operations)
 out of a pool of 48 trial point group operations.


The dynamic configuration has the point symmetry T_d .
 The point group associated with its full space group is O_h .


 Subroutine INISYM returns: Found 48 space group operations
 (whereof 24 operations are pure point group operations),
 and found     1 'primitive' translations




Automatic generation of k-mesh.
 generate k-points for:    4    4    4
Space group operators:
 irot       det(A)        alpha          n_x          n_y          n_z        tau_x        tau_y        tau_z
    1     1.000000     0.000000     1.000000     0.000000     0.000000     0.000000     0.000000     0.000000
    2     1.000000   120.000000    -0.816497    -0.471405    -0.333333     0.000000     0.000000     0.000000
    3     1.000000   120.000000     0.816497     0.471405     0.333333     0.000000     0.000000     0.000000
    4    -1.000000    90.000000    -0.707107    -0.408248     0.577350     0.000000     0.000000     0.000000
    5    -1.000000   179.999999     1.000000    -0.000000    -0.000000     0.000000     0.000000     0.000000
    6    -1.000000    90.000000     0.707107    -0.408248     0.577350     0.000000     0.000000     0.000000
    7     1.000000   180.000000     0.707107     0.408248    -0.577350     0.000000     0.000000     0.000000
    8     1.000000   120.000000     0.816497    -0.471405    -0.333333     0.000000     0.000000     0.000000
    9     1.000000   120.000000    -0.000000    -0.942809     0.333333     0.000000     0.000000     0.000000
   10    -1.000000    90.000000     0.707107     0.408248    -0.577350     0.000000     0.000000     0.000000
   11    -1.000000    90.000000    -0.000000    -0.816497    -0.577350     0.000000     0.000000     0.000000
   12    -1.000000   180.000000     0.500000     0.866025    -0.000000     0.000000     0.000000     0.000000
   13     1.000000   120.000000     0.000000     0.942809    -0.333333     0.000000     0.000000     0.000000
   14     1.000000   120.000000     0.000000    -0.000000    -1.000000     0.000000     0.000000     0.000000
   15     1.000000   180.000000     0.000000    -0.816497    -0.577350     0.000000     0.000000     0.000000
   16    -1.000000    90.000000    -0.707107     0.408248    -0.577350     0.000000     0.000000     0.000000
   17    -1.000000   180.000000     0.500000     0.288675     0.816497     0.000000     0.000000     0.000000
   18    -1.000000    90.000000     0.000000     0.816497     0.577350     0.000000     0.000000     0.000000
   19     1.000000   120.000000    -0.816497     0.471405     0.333333     0.000000     0.000000     0.000000
   20     1.000000   179.999999    -0.707107     0.408248    -0.577350     0.000000     0.000000     0.000000
   21     1.000000   120.000000     0.000000    -0.000000     1.000000     0.000000     0.000000     0.000000
   22    -1.000000   180.000000     0.000000    -0.577350     0.816497     0.000000     0.000000     0.000000
   23    -1.000000   179.999999    -0.500000     0.866025    -0.000000     0.000000     0.000000     0.000000
   24    -1.000000   180.000000    -0.500000     0.288675     0.816497     0.000000     0.000000     0.000000
   25    -1.000000     0.000000     1.000000     0.000000     0.000000     0.250000     0.250000     0.250000
   26    -1.000000   120.000000    -0.816497    -0.471405    -0.333333     0.250000     0.250000     0.250000
   27    -1.000000   120.000000     0.816497     0.471405     0.333333     0.250000     0.250000     0.250000
   28     1.000000    90.000000    -0.707107    -0.408248     0.577350     0.250000     0.250000     0.250000
   29     1.000000   179.999999     1.000000    -0.000000    -0.000000     0.250000     0.250000     0.250000
   30     1.000000    90.000000     0.707107    -0.408248     0.577350     0.250000     0.250000     0.250000
   31    -1.000000   180.000000     0.707107     0.408248    -0.577350     0.250000     0.250000     0.250000
   32    -1.000000   120.000000     0.816497    -0.471405    -0.333333     0.250000     0.250000     0.250000
   33    -1.000000   120.000000    -0.000000    -0.942809     0.333333     0.250000     0.250000     0.250000
   34     1.000000    90.000000     0.707107     0.408248    -0.577350     0.250000     0.250000     0.250000
   35     1.000000    90.000000    -0.000000    -0.816497    -0.577350     0.250000     0.250000     0.250000
   36     1.000000   180.000000     0.500000     0.866025    -0.000000     0.250000     0.250000     0.250000
   37    -1.000000   120.000000     0.000000     0.942809    -0.333333     0.250000     0.250000     0.250000
   38    -1.000000   120.000000     0.000000    -0.000000    -1.000000     0.250000     0.250000     0.250000
   39    -1.000000   180.000000     0.000000    -0.816497    -0.577350     0.250000     0.250000     0.250000
   40     1.000000    90.000000    -0.707107     0.408248    -0.577350     0.250000     0.250000     0.250000
   41     1.000000   180.000000     0.500000     0.288675     0.816497     0.250000     0.250000     0.250000
   42     1.000000    90.000000     0.000000     0.816497     0.577350     0.250000     0.250000     0.250000
   43    -1.000000   120.000000    -0.816497     0.471405     0.333333     0.250000     0.250000     0.250000
   44    -1.000000   179.999999    -0.707107     0.408248    -0.577350     0.250000     0.250000     0.250000
   45    -1.000000   120.000000     0.000000    -0.000000     1.000000     0.250000     0.250000     0.250000
   46     1.000000   180.000000     0.000000    -0.577350     0.816497     0.250000     0.250000     0.250000
   47     1.000000   179.999999    -0.500000     0.866025    -0.000000     0.250000     0.250000     0.250000
   48     1.000000   180.000000    -0.500000     0.288675     0.816497     0.250000     0.250000     0.250000
 
 Subroutine IBZKPT returns following result:
 ===========================================
 
 Found      8 irreducible k-points:
 
 Following reciprocal coordinates:
            Coordinates               Weight
  0.000000  0.000000  0.000000      1.000000
  0.250000  0.000000  0.000000      8.000000
  0.500000  0.000000  0.000000      4.000000
  0.250000  0.250000  0.000000      6.000000
  0.500000  0.250000  0.000000     24.000000
 -0.250000  0.250000  0.000000     12.000000
  0.500000  0.500000  0.000000      3.000000
 -0.250000  0.500000  0.250000      6.000000
 
 Following cartesian coordinates:
            Coordinates               Weight
  0.000000  0.000000  0.000000      1.000000
  0.064650 -0.037326 -0.026393      8.000000
  0.129300 -0.074651 -0.052787      4.000000
  0.064650  0.037326 -0.052787      6.000000
  0.129300 -0.000000 -0.079180     24.000000
 -0.064650  0.111977 -0.000000     12.000000
  0.129300  0.074651 -0.105573      3.000000
 -0.064650  0.186629  0.052787      6.000000
 


--------------------------------------------------------------------------------------------------------




 Dimension of arrays:
   k-points           NKPTS =      8   k-points in BZ     NKDIM =      8   number of bands    NBANDS=      8
   number of dos      NEDOS =   2001   number of ions     NIONS =      2
   non local maximal  LDIM  =      4   non local SUM 2l+1 LMDIM =      8
   total plane-waves  NPLWV =   4096
   max r-space proj   IRMAX =      1   max aug-charges    IRDMAX=  26991
   dimension x,y,z NGX =    16 NGY =   16 NGZ =   16
   dimension x,y,z NGXF=    32 NGYF=   32 NGZF=   32
   support grid    NGXF=    64 NGYF=   64 NGZF=   64
   ions per type =               2
   NGX,Y,Z   is equivalent  to a cutoff of   6.88,  6.88,  6.88 a.u.
   NGXF,Y,Z  is equivalent  to a cutoff of  13.76, 13.76, 13.76 a.u.

 SYSTEM =  unknown system                          
 POSCAR =  cif2pos.py                              

 Startparameter for this run:
   NWRITE =      2    write-flag & timer
   PREC   = normal    normal or accurate (medium, high low for compatibility)
   ISTART =      0    job   : 0-new  1-cont  2-samecut
   ICHARG =      2    charge: 1-file 2-atom 10-const
   ISPIN  =      1    spin polarized calculation?
   LNONCOLLINEAR =      F non collinear calculations
   LSORBIT =      F    spin-orbit coupling
   INIWAV =      1    electr: 0-lowe 1-rand  2-diag
   LASPH  =      F    aspherical Exc in radial PAW
   METAGGA=      F    non-selfconsistent MetaGGA calc.

 Electronic Relaxation 1
   ENCUT  =  245.3 eV  18.03 Ry    4.25 a.u.   4.94  4.94  4.94*2*pi/ulx,y,z
   ENINI  =  245.3     initial cutoff
   ENAUG  =  322.1 eV  augmentation charge cutoff
   NELM   =     60;   NELMIN=  2; NELMDL=  0     # of ELM steps 
   EDIFF  = 0.1E-07   stopping-criterion for ELM
   LREAL  =      F    real-space projection
   NLSPLINE    = F    spline interpolate recip. space projectors
   LCOMPAT=      F    compatible to vasp.4.4
   GGA_COMPAT  = T    GGA compatible to vasp.4.4-vasp.4.6
   LMAXPAW     = -100 max onsite density
   LMAXMIX     =    2 max onsite mixed and CHGCAR
   VOSKOWN=      0    Vosko Wilk Nusair interpolation
   ROPT   =    0.00000
 Ionic relaxation
   EDIFFG = 0.1E-06   stopping-criterion for IOM
   NSW    =      0    number of steps for IOM
   NBLOCK =      1;   KBLOCK =      1    inner block; outer block 
   IBRION =     -1    ionic relax: 0-MD 1-quasi-New 2-CG
   NFREE  =      0    steps in history (QN), initial steepest desc. (CG)
   ISIF   =      2    stress and relaxation
   IWAVPR =     10    prediction:  0-non 1-charg 2-wave 3-comb
   ISYM   =      2    0-nonsym 1-usesym 2-fastsym
   LCORR  =      T    Harris-Foulkes like correction to forces

   POTIM  = 0.5000    time-step for ionic-motion
   TEIN   =    0.0    initial temperature
   TEBEG  =    0.0;   TEEND  =   0.0 temperature during run
   SMASS  =  -3.00    Nose mass-parameter (am)
   estimated Nose-frequenzy (Omega)   =  0.10E-29 period in steps =****** mass=  -0.342E-27a.u.
   SCALEE = 1.0000    scale energy and forces
   NPACO  =    256;   APACO  = 16.0  distance and # of slots for P.C.
   PSTRESS=    0.0 pullay stress

  Mass of Ions in am
   POMASS =  28.09
  Ionic Valenz
   ZVAL   =   4.00
  Atomic Wigner-Seitz radii
   RWIGS  =  -1.00
  virtual crystal weights 
   VCA    =   1.00
   NELECT =       8.0000    total number of electrons
   NUPDOWN=      -1.0000    fix difference up-down

 DOS related values:
   EMIN   =  10.00;   EMAX   =-10.00  energy-range for DOS
   EFERMI =   0.00
   ISMEAR =     0;   SIGMA  =   0.05  broadening in eV -4-tet -1-fermi 0-gaus

 Electronic relaxation 2 (details)
   IALGO  =     38    algorithm
   LDIAG  =      T    sub-space diagonalisation (order eigenvalues)
   LSUBROT=      F    optimize rotation matrix (better conditioning)
   TURBO    =      0    0=normal 1=particle mesh
   IRESTART =      0    0=no restart 2=restart with 2 vectors
   NREBOOT  =      0    no. of reboots
   NMIN     =      0    reboot dimension
   EREF     =   0.00    reference energy to select bands
   IMIX   =      4    mixing-type and parameters
     AMIX     =   0.40;   BMIX     =  1.00
     AMIX_MAG =   1.60;   BMIX_MAG =  1.00
     AMIN     =   0.10
     WC   =   100.;   INIMIX=   1;  MIXPRE=   1;  MAXMIX= -45

 Intra band minimization:
   WEIMIN = 0.0000     energy-eigenvalue tresh-hold
   EBREAK =  0.31E-09  absolut break condition
   DEPER  =   0.30     relativ break condition  

   TIME   =   0.40     timestep for ELM

  volume/ion in A,a.u.               =      20.44       137.96
  Fermi-wavevector in a.u.,A,eV,Ry     =   0.950397  1.795990 12.289529  0.903255
  Thomas-Fermi vector in A             =   2.078770

 Write flags
   LWAVE        =      T    write WAVECAR
   LDOWNSAMPLE  =      F    k-point downsampling of WAVECAR
   LCHARG       =      T    write CHGCAR
   LVTOT        =      F    write LOCPOT, total local potential
   LVHAR        =      F    write LOCPOT, Hartree potential only
   LELF         =      F    write electronic localiz. function (ELF)
   LORBIT       =     11    0 simple, 1 ext, 2 COOP (PROOUT), +10 PAW based schemes


 Dipole corrections
   LMONO  =      F    monopole corrections only (constant potential shift)
   LDIPOL =      F    correct potential (dipole corrections)
   IDIPOL =      0    1-x, 2-y, 3-z, 4-all directions 
   EPSILON=  1.0000000 bulk dielectric constant

 Exchange correlation treatment:
   GGA     =    --    GGA type
   LEXCH   =     8    internal setting for exchange type
   VOSKOWN=      0    Vosko Wilk Nusair interpolation
   LHFCALC =     F    Hartree Fock is set to
   LHFONE  =     F    Hartree Fock one center treatment
   AEXX    =    0.0000 exact exchange contribution

 Linear response parameters
   LEPSILON=     F    determine dielectric tensor
   LRPA    =     F    only Hartree local field effects (RPA)
   LNABLA  =     F    use nabla operator in PAW spheres
   LVEL    =     F    velocity operator in full k-point grid
   LINTERFAST=   F  fast interpolation
   KINTER  =     0    interpolate to denser k-point grid
   CSHIFT  =0.1000    complex shift for real part using Kramers Kronig
   OMEGAMAX=  -1.0    maximum frequency
   DEG_THRESHOLD= 0.2000000E-02 threshold for treating states as degnerate
   RTIME   =   -0.100 relaxation time in fs
  (WPLASMAI=    0.000 imaginary part of plasma frequency in eV, 0.658/RTIME)
   DFIELD  = 0.0000000 0.0000000 0.0000000 field for delta impulse in time

 Orbital magnetization related:
   ORBITALMAG=     F  switch on orbital magnetization
   LCHIMAG   =     F  perturbation theory with respect to B field
   DQ        =  0.001000  dq finite difference perturbation B field
   LLRAUG    =     F  two centre corrections for induced B field



--------------------------------------------------------------------------------------------------------


 Static calculation
 charge density and potential will be updated during run
 non-spin polarized calculation
 Variant of blocked Davidson
 Davidson routine will perform the subspace rotation
 perform sub-space diagonalisation
    after iterative eigenvector-optimisation
 modified Broyden-mixing scheme, WC =      100.0
 initial mixing is a Kerker type mixing with AMIX =  0.4000 and BMIX =      1.0000
 Hartree-type preconditioning will be used
 using additional bands            4
 reciprocal scheme for non local part
 use partial core corrections
 calculate Harris-corrections to forces   (improved forces if not selfconsistent)
 use gradient corrections 
 use of overlap-Matrix (Vanderbilt PP)
 Gauss-broadening in eV      SIGMA  =   0.05


--------------------------------------------------------------------------------------------------------


  energy-cutoff  :      245.34
  volume of cell :       40.89
      direct lattice vectors                 reciprocal lattice vectors
     3.866974650  0.000000000  0.000000000     0.258600092 -0.149302833 -0.105573046
     1.933487330  3.348898280  0.000000000     0.000000000  0.298605666 -0.105573046
     1.933487330  1.116299430  3.157371580     0.000000000  0.000000000  0.316719136

  length of vectors
     3.866974650  3.866974650  3.866974653     0.316719137  0.316719137  0.316719136



 k-points in units of 2pi/SCALE and weight: read from INCAR                         
   0.00000000  0.00000000  0.00000000       0.016
   0.06465002 -0.03732571 -0.02639326       0.125
   0.12930005 -0.07465142 -0.05278652       0.062
   0.06465002  0.03732571 -0.05278652       0.094
   0.12930005 -0.00000000 -0.07917978       0.375
  -0.06465002  0.11197712 -0.00000000       0.188
   0.12930005  0.07465142 -0.10557305       0.047
  -0.06465002  0.18662854  0.05278652       0.094

 k-points in reciprocal lattice and weights: read from INCAR                         
   0.00000000  0.00000000  0.00000000       0.016
   0.25000000  0.00000000  0.00000000       0.125
   0.50000000  0.00000000  0.00000000       0.062
   0.25000000  0.25000000  0.00000000       0.094
   0.50000000  0.25000000  0.00000000       0.375
  -0.25000000  0.25000000  0.00000000       0.188
   0.50000000  0.50000000  0.00000000       0.047
  -0.25000000  0.50000000  0.25000000       0.094

 position of ions in fractional coordinates (direct lattice) 
   0.25000000  0.25000000  0.25000000
   0.00000000  0.00000000  0.00000000

 position of ions in cartesian coordinates  (Angst):
   1.93348733  1.11629943  0.78934289
   0.00000000  0.00000000  0.00000000



--------------------------------------------------------------------------------------------------------


 k-point  1 :   0.0000 0.0000 0.0000  plane waves:     339
 k-point  2 :   0.2500 0.0000 0.0000  plane waves:     356
 k-point  3 :   0.5000 0.0000 0.0000  plane waves:     368
 k-point  4 :   0.2500 0.2500 0.0000  plane waves:     351
 k-point  5 :   0.5000 0.2500 0.0000  plane waves:     362
 k-point  6 :  -0.2500 0.2500 0.0000  plane waves:     363
 k-point  7 :   0.5000 0.5000 0.0000  plane waves:     342
 k-point  8 :  -0.2500 0.5000 0.2500  plane waves:     360

 maximum and minimum number of plane-waves per node :        27       17

 maximum number of plane-waves:       368
 maximum index in each direction: 
   IXMAX=    5   IYMAX=    4   IZMAX=    4
   IXMIN=   -5   IYMIN=   -5   IZMIN=   -5


 parallel 3D FFT for wavefunctions:
    minimum data exchange during FFTs selected (reduces bandwidth)
 parallel 3D FFT for charge:
    minimum data exchange during FFTs selected (reduces bandwidth)


 total amount of memory used by VASP MPI-rank0    30192. kBytes
=======================================================================

   base      :      30000. kBytes
   nonl-proj :         13. kBytes
   fftplans  :        107. kBytes
   grid      :         61. kBytes
   one-center:          3. kBytes
   wavefun   :          8. kBytes

     INWAV:  cpu time    0.0000: real time    0.0000
 Broyden mixing: mesh for mixing (old mesh)
   NGX =  9   NGY =  9   NGZ =  9
  (NGX  = 32   NGY  = 32   NGZ  = 32)
  gives a total of    729 points

 initial charge density was supplied:
 charge density of overlapping atoms calculated
 number of electron       8.0000000 magnetization 
 keeping initial charge density in first step


--------------------------------------------------------------------------------------------------------


 Maximum index for augmentation-charges          967 (set IRDMAX)


--------------------------------------------------------------------------------------------------------


 First call to EWALD:  gamma=   0.514
 Maximum number of real-space cells 3x 3x 3
 Maximum number of reciprocal cells 3x 3x 3

    FEWALD:  cpu time    0.0015: real time    0.0015


--------------------------------------- Iteration      1(   1)  ---------------------------------------


    POTLOK:  cpu time    0.0117: real time    0.0132
    SETDIJ:  cpu time    0.0018: real time    0.0021
     EDDAV:  cpu time    0.0111: real time    0.0122
       DOS:  cpu time    0.0010: real time    0.0010
    --------------------------------------------
      LOOP:  cpu time    0.0260: real time    0.0289

 eigenvalue-minimisations  :   128
 total energy-change (2. order) :-0.2296604E+01  (-0.2218557E+03)
 number of electron       8.0000000 magnetization 
 augmentation part        8.0000000 magnetization 

 Free energy of the ion-electron system (eV)
  ---------------------------------------------------
  alpha Z        PSCENC =         3.29318038
  Ewald energy   TEWEN  =      -226.94490232
  -Hartree energ DENC   =       -11.32338903
  -exchange      EXHF   =         0.00000000
  -V(xc)+E(xc)   XCENC  =       -18.68511948
  PAW double counting   =       176.24759923     -141.06103558
  entropy T*S    EENTRO =        -0.00000000
  eigenvalues    EBANDS =        10.05449088
  atomic energy  EATOM  =       206.12257231
  Solvation  Ediel_sol  =         0.00000000
  ---------------------------------------------------
  free energy    TOTEN  =        -2.29660361 eV

  energy without entropy =       -2.29660361  energy(sigma->0) =       -2.29660361


--------------------------------------------------------------------------------------------------------




--------------------------------------- Iteration      1(   2)  ---------------------------------------


     EDDAV:  cpu time    0.0213: real time    0.0357
       DOS:  cpu time    0.0012: real time    0.0012
    --------------------------------------------
      LOOP:  cpu time    0.0225: real time    0.0369

 eigenvalue-minimisations  :   208
 total energy-change (2. order) :-0.8439067E+01  (-0.7911255E+01)
 number of electron       8.0000000 magnetization 
 augmentation part        8.0000000 magnetization 

 Free energy of the ion-electron system (eV)
  ---------------------------------------------------
  alpha Z        PSCENC =         3.29318038
  Ewald energy   TEWEN  =      -226.94490232
  -Hartree energ DENC   =       -11.32338903
  -exchange      EXHF   =         0.00000000
  -V(xc)+E(xc)   XCENC  =       -18.68511948
  PAW double counting   =       176.24759923     -141.06103558
  entropy T*S    EENTRO =        -0.00000000
  eigenvalues    EBANDS =         1.61542437
  atomic energy  EATOM  =       206.12257231
  Solvation  Ediel_sol  =         0.00000000
  ---------------------------------------------------
  free energy    TOTEN  =       -10.73567012 eV

  energy without entropy =      -10.73567012  energy(sigma->0) =      -10.73567012


--------------------------------------------------------------------------------------------------------




--------------------------------------- Iteration      1(   3)  ---------------------------------------


     EDDAV:  cpu time    0.0225: real time    0.0358
       DOS:  cpu time    0.0011: real time    0.0011
    --------------------------------------------
      LOOP:  cpu time    0.0236: real time    0.0369

 eigenvalue-minimisations  :   152
 total energy-change (2. order) :-0.9679775E-01  (-0.9679775E-01)
 number of electron       8.0000000 magnetization 
 augmentation part        8.0000000 magnetization 

 Free energy of the ion-electron system (eV)
  ---------------------------------------------------
  alpha Z        PSCENC =         3.29318038
  Ewald energy   TEWEN  =      -226.94490232
  -Hartree energ DENC   =       -11.32338903
  -exchange      EXHF   =         0.00000000
  -V(xc)+E(xc)   XCENC  =       -18.68511948
  PAW double counting   =       176.24759923     -141.06103558
  entropy T*S    EENTRO =        -0.00000000
  eigenvalues    EBANDS =         1.51862662
  atomic energy  EATOM  =       206.12257231
  Solvation  Ediel_sol  =         0.00000000
  ---------------------------------------------------
  free energy    TOTEN  =       -10.83246787 eV

  energy without entropy =      -10.83246787  energy(sigma->0) =      -10.83246787


--------------------------------------------------------------------------------------------------------




--------------------------------------- Iteration      1(   4)  ---------------------------------------


     EDDAV:  cpu time    0.0202: real time    0.0351
       DOS:  cpu time    0.0012: real time    0.0012
    --------------------------------------------
      LOOP:  cpu time    0.0213: real time    0.0363

 eigenvalue-minimisations  :   184
 total energy-change (2. order) :-0.2896653E-03  (-0.2896652E-03)
 number of electron       8.0000000 magnetization 
 augmentation part        8.0000000 magnetization 

 Free energy of the ion-electron system (eV)
  ---------------------------------------------------
  alpha Z        PSCENC =         3.29318038
  Ewald energy   TEWEN  =      -226.94490232
  -Hartree energ DENC   =       -11.32338903
  -exchange      EXHF   =         0.00000000
  -V(xc)+E(xc)   XCENC  =       -18.68511948
  PAW double counting   =       176.24759923     -141.06103558
  entropy T*S    EENTRO =        -0.00000000
  eigenvalues    EBANDS =         1.51833695
  atomic energy  EATOM  =       206.12257231
  Solvation  Ediel_sol  =         0.00000000
  ---------------------------------------------------
  free energy    TOTEN  =       -10.83275754 eV

  energy without entropy =      -10.83275754  energy(sigma->0) =      -10.83275754


--------------------------------------------------------------------------------------------------------




--------------------------------------- Iteration      1(   5)  ---------------------------------------


     EDDAV:  cpu time    0.0159: real time    0.0297
       DOS:  cpu time    0.0010: real time    0.0010
    CHARGE:  cpu time    0.0030: real time    0.0032
    MIXING:  cpu time    0.0021: real time    0.0025
    --------------------------------------------
      LOOP:  cpu time    0.0221: real time    0.0363

 eigenvalue-minimisations  :   152
 total energy-change (2. order) :-0.1461917E-05  (-0.1462121E-05)
 number of electron       8.0000000 magnetization 
 augmentation part       -0.4641123 magnetization 

 Broyden mixing:
  rms(total) = 0.53123E+00    rms(broyden)= 0.53120E+00
  rms(prec ) = 0.99443E+00
  weight for this iteration     100.00

 Free energy of the ion-electron system (eV)
  ---------------------------------------------------
  alpha Z        PSCENC =         3.29318038
  Ewald energy   TEWEN  =      -226.94490232
  -Hartree energ DENC   =       -11.32338903
  -exchange      EXHF   =         0.00000000
  -V(xc)+E(xc)   XCENC  =       -18.68511948
  PAW double counting   =       176.24759923     -141.06103558
  entropy T*S    EENTRO =        -0.00000000
  eigenvalues    EBANDS =         1.51833549
  atomic energy  EATOM  =       206.12257231
  Solvation  Ediel_sol  =         0.00000000
  ---------------------------------------------------
  free energy    TOTEN  =       -10.83275900 eV

  energy without entropy =      -10.83275900  energy(sigma->0) =      -10.83275900


--------------------------------------------------------------------------------------------------------




--------------------------------------- Iteration      1(   6)  ---------------------------------------


    POTLOK:  cpu time    0.0091: real time    0.0242
    SETDIJ:  cpu time    0.0013: real time    0.0013
     EDDAV:  cpu time    0.0080: real time    0.0080
       DOS:  cpu time    0.0010: real time    0.0010
    CHARGE:  cpu time    0.0011: real time    0.0011
    MIXING:  cpu time    0.0006: real time    0.0009
    --------------------------------------------
      LOOP:  cpu time    0.0212: real time    0.0366

 eigenvalue-minimisations  :   144
 total energy-change (2. order) : 0.1305926E+00  (-0.8231425E-02)
 number of electron       8.0000000 magnetization 
 augmentation part       -0.4579937 magnetization 

 Broyden mixing:
  rms(total) = 0.32637E+00    rms(broyden)= 0.32637E+00
  rms(prec ) = 0.59561E+00
  weight for this iteration     100.00

 eigenvalues of (default mixing * dielectric matrix)
  average eigenvalue GAMMA=   2.5848
  2.5848

 Free energy of the ion-electron system (eV)
  ---------------------------------------------------
  alpha Z        PSCENC =         3.29318038
  Ewald energy   TEWEN  =      -226.94490232
  -Hartree energ DENC   =       -12.88522673
  -exchange      EXHF   =         0.00000000
  -V(xc)+E(xc)   XCENC  =       -18.43851502
  PAW double counting   =       409.66557395     -374.58814499
  entropy T*S    EENTRO =        -0.00000000
  eigenvalues    EBANDS =         3.07329605
  atomic energy  EATOM  =       206.12257231
  Solvation  Ediel_sol  =         0.00000000
  ---------------------------------------------------
  free energy    TOTEN  =       -10.70216637 eV

  energy without entropy =      -10.70216637  energy(sigma->0) =      -10.70216637


--------------------------------------------------------------------------------------------------------




--------------------------------------- Iteration      1(   7)  ---------------------------------------


    POTLOK:  cpu time    0.0125: real time    0.0249
    SETDIJ:  cpu time    0.0011: real time    0.0011
     EDDAV:  cpu time    0.0076: real time    0.0076
       DOS:  cpu time    0.0009: real time    0.0009
    CHARGE:  cpu time    0.0011: real time    0.0011
    MIXING:  cpu time    0.0003: real time    0.0003
    --------------------------------------------
      LOOP:  cpu time    0.0234: real time    0.0358

 eigenvalue-minimisations  :   144
 total energy-change (2. order) : 0.5961129E-01  (-0.1625833E-01)
 number of electron       8.0000000 magnetization 
 augmentation part       -0.4504031 magnetization 

 Broyden mixing:
  rms(total) = 0.19098E-01    rms(broyden)= 0.19097E-01
  rms(prec ) = 0.42963E-01
  weight for this iteration     100.00

 eigenvalues of (default mixing * dielectric matrix)
  average eigenvalue GAMMA=   2.0733
  1.7518  2.3948

 Free energy of the ion-electron system (eV)
  ---------------------------------------------------
  alpha Z        PSCENC =         3.29318038
  Ewald energy   TEWEN  =      -226.94490232
  -Hartree energ DENC   =       -15.50237678
  -exchange      EXHF   =         0.00000000
  -V(xc)+E(xc)   XCENC  =       -18.01968800
  PAW double counting   =       995.97217926     -961.03775151
  entropy T*S    EENTRO =        -0.00000000
  eigenvalues    EBANDS =         5.47423158
  atomic energy  EATOM  =       206.12257231
  Solvation  Ediel_sol  =         0.00000000
  ---------------------------------------------------
  free energy    TOTEN  =       -10.64255508 eV

  energy without entropy =      -10.64255508  energy(sigma->0) =      -10.64255508


--------------------------------------------------------------------------------------------------------




--------------------------------------- Iteration      1(   8)  ---------------------------------------


    POTLOK:  cpu time    0.0126: real time    0.0242
    SETDIJ:  cpu time    0.0011: real time    0.0011
     EDDAV:  cpu time    0.0079: real time    0.0079
       DOS:  cpu time    0.0008: real time    0.0008
    CHARGE:  cpu time    0.0011: real time    0.0011
    MIXING:  cpu time    0.0003: real time    0.0003
    --------------------------------------------
      LOOP:  cpu time    0.0238: real time    0.0354

 eigenvalue-minimisations  :   144
 total energy-change (2. order) :-0.1501713E-02  (-0.4225075E-03)
 number of electron       8.0000000 magnetization 
 augmentation part       -0.4514120 magnetization 

 Broyden mixing:
  rms(total) = 0.68682E-02    rms(broyden)= 0.68675E-02
  rms(prec ) = 0.13646E-01
  weight for this iteration     100.00

 eigenvalues of (default mixing * dielectric matrix)
  average eigenvalue GAMMA=   2.1509
  2.6831  1.7390  2.0306

 Free energy of the ion-electron system (eV)
  ---------------------------------------------------
  alpha Z        PSCENC =         3.29318038
  Ewald energy   TEWEN  =      -226.94490232
  -Hartree energ DENC   =       -15.43033826
  -exchange      EXHF   =         0.00000000
  -V(xc)+E(xc)   XCENC  =       -18.02085005
  PAW double counting   =      1003.13625816     -968.17350515
  entropy T*S    EENTRO =        -0.00000000
  eigenvalues    EBANDS =         5.37352813
  atomic energy  EATOM  =       206.12257231
  Solvation  Ediel_sol  =         0.00000000
  ---------------------------------------------------
  free energy    TOTEN  =       -10.64405679 eV

  energy without entropy =      -10.64405679  energy(sigma->0) =      -10.64405679


--------------------------------------------------------------------------------------------------------




--------------------------------------- Iteration      1(   9)  ---------------------------------------


    POTLOK:  cpu time    0.0112: real time    0.0257
    SETDIJ:  cpu time    0.0011: real time    0.0011
     EDDAV:  cpu time    0.0076: real time    0.0076
       DOS:  cpu time    0.0007: real time    0.0007
    CHARGE:  cpu time    0.0011: real time    0.0011
    MIXING:  cpu time    0.0003: real time    0.0003
    --------------------------------------------
      LOOP:  cpu time    0.0221: real time    0.0367

 eigenvalue-minimisations  :   144
 total energy-change (2. order) :-0.2781047E-03  (-0.2677544E-04)
 number of electron       8.0000000 magnetization 
 augmentation part       -0.4515435 magnetization 

 Broyden mixing:
  rms(total) = 0.55130E-02    rms(broyden)= 0.55129E-02
  rms(prec ) = 0.65505E-02
  weight for this iteration     100.00

 eigenvalues of (default mixing * dielectric matrix)
  average eigenvalue GAMMA=   2.1662
  0.9650  2.9622  2.3688  2.3688

 Free energy of the ion-electron system (eV)
  ---------------------------------------------------
  alpha Z        PSCENC =         3.29318038
  Ewald energy   TEWEN  =      -226.94490232
  -Hartree energ DENC   =       -15.47478527
  -exchange      EXHF   =         0.00000000
  -V(xc)+E(xc)   XCENC  =       -18.01245970
  PAW double counting   =      1005.49913099     -970.53329206
  entropy T*S    EENTRO =        -0.00000000
  eigenvalues    EBANDS =         5.40622078
  atomic energy  EATOM  =       206.12257231
  Solvation  Ediel_sol  =         0.00000000
  ---------------------------------------------------
  free energy    TOTEN  =       -10.64433490 eV

  energy without entropy =      -10.64433490  energy(sigma->0) =      -10.64433490


--------------------------------------------------------------------------------------------------------




--------------------------------------- Iteration      1(  10)  ---------------------------------------


    POTLOK:  cpu time    0.0092: real time    0.0243
    SETDIJ:  cpu time    0.0011: real time    0.0011
     EDDAV:  cpu time    0.0068: real time    0.0068
       DOS:  cpu time    0.0006: real time    0.0006
    CHARGE:  cpu time    0.0011: real time    0.0011
    MIXING:  cpu time    0.0003: real time    0.0003
    --------------------------------------------
      LOOP:  cpu time    0.0191: real time    0.0342

 eigenvalue-minimisations  :   136
 total energy-change (2. order) :-0.3639774E-04  (-0.4800412E-05)
 number of electron       8.0000000 magnetization 
 augmentation part       -0.4515209 magnetization 

 Broyden mixing:
  rms(total) = 0.90292E-03    rms(broyden)= 0.90274E-03
  rms(prec ) = 0.95741E-03
  weight for this iteration     100.00

 eigenvalues of (default mixing * dielectric matrix)
  average eigenvalue GAMMA=   1.8898
  2.9565  2.4516  2.1611  0.9399  0.9399

 Free energy of the ion-electron system (eV)
  ---------------------------------------------------
  alpha Z        PSCENC =         3.29318038
  Ewald energy   TEWEN  =      -226.94490232
  -Hartree energ DENC   =       -15.48696124
  -exchange      EXHF   =         0.00000000
  -V(xc)+E(xc)   XCENC  =       -18.01161911
  PAW double counting   =       992.87051990     -957.90480357
  entropy T*S    EENTRO =        -0.00000000
  eigenvalues    EBANDS =         5.41764235
  atomic energy  EATOM  =       206.12257231
  Solvation  Ediel_sol  =         0.00000000
  ---------------------------------------------------
  free energy    TOTEN  =       -10.64437130 eV

  energy without entropy =      -10.64437130  energy(sigma->0) =      -10.64437130


--------------------------------------------------------------------------------------------------------




--------------------------------------- Iteration      1(  11)  ---------------------------------------


    POTLOK:  cpu time    0.0107: real time    0.0235
    SETDIJ:  cpu time    0.0012: real time    0.0012
     EDDAV:  cpu time    0.0105: real time    0.0105
       DOS:  cpu time    0.0006: real time    0.0006
    CHARGE:  cpu time    0.0011: real time    0.0011
    MIXING:  cpu time    0.0003: real time    0.0003
    --------------------------------------------
      LOOP:  cpu time    0.0245: real time    0.0372

 eigenvalue-minimisations  :   192
 total energy-change (2. order) : 0.4468464E-06  (-0.4554863E-07)
 number of electron       8.0000000 magnetization 
 augmentation part       -0.4515334 magnetization 

 Broyden mixing:
  rms(total) = 0.23190E-03    rms(broyden)= 0.23134E-03
  rms(prec ) = 0.39964E-03
  weight for this iteration     100.00

 eigenvalues of (default mixing * dielectric matrix)
  average eigenvalue GAMMA=   2.0971
  3.2205  2.8598  2.2898  2.2898  0.9614  0.9614

 Free energy of the ion-electron system (eV)
  ---------------------------------------------------
  alpha Z        PSCENC =         3.29318038
  Ewald energy   TEWEN  =      -226.94490232
  -Hartree energ DENC   =       -15.48559506
  -exchange      EXHF   =         0.00000000
  -V(xc)+E(xc)   XCENC  =       -18.01176193
  PAW double counting   =       994.05378054     -959.08779327
  entropy T*S    EENTRO =        -0.00000000
  eigenvalues    EBANDS =         5.41614850
  atomic energy  EATOM  =       206.12257231
  Solvation  Ediel_sol  =         0.00000000
  ---------------------------------------------------
  free energy    TOTEN  =       -10.64437085 eV

  energy without entropy =      -10.64437085  energy(sigma->0) =      -10.64437085


--------------------------------------------------------------------------------------------------------




--------------------------------------- Iteration      1(  12)  ---------------------------------------


    POTLOK:  cpu time    0.0094: real time    0.0254
    SETDIJ:  cpu time    0.0011: real time    0.0011
     EDDAV:  cpu time    0.0079: real time    0.0079
       DOS:  cpu time    0.0006: real time    0.0006
    CHARGE:  cpu time    0.0011: real time    0.0011
    MIXING:  cpu time    0.0004: real time    0.0004
    --------------------------------------------
      LOOP:  cpu time    0.0205: real time    0.0364

 eigenvalue-minimisations  :   144
 total energy-change (2. order) :-0.2709642E-06  (-0.5191353E-07)
 number of electron       8.0000000 magnetization 
 augmentation part       -0.4515244 magnetization 

 Broyden mixing:
  rms(total) = 0.82950E-04    rms(broyden)= 0.81396E-04
  rms(prec ) = 0.95215E-04
  weight for this iteration     100.00

 eigenvalues of (default mixing * dielectric matrix)
  average eigenvalue GAMMA=   1.9104
  3.2614  2.7062  2.3702  2.3042  0.9848  0.9848  0.7611

 Free energy of the ion-electron system (eV)
  ---------------------------------------------------
  alpha Z        PSCENC =         3.29318038
  Ewald energy   TEWEN  =      -226.94490232
  -Hartree energ DENC   =       -15.48680729
  -exchange      EXHF   =         0.00000000
  -V(xc)+E(xc)   XCENC  =       -18.01180750
  PAW double counting   =       994.27025660     -959.30425312
  entropy T*S    EENTRO =        -0.00000000
  eigenvalues    EBANDS =         5.41738982
  atomic energy  EATOM  =       206.12257231
  Solvation  Ediel_sol  =         0.00000000
  ---------------------------------------------------
  free energy    TOTEN  =       -10.64437112 eV

  energy without entropy =      -10.64437112  energy(sigma->0) =      -10.64437112


--------------------------------------------------------------------------------------------------------




--------------------------------------- Iteration      1(  13)  ---------------------------------------


    POTLOK:  cpu time    0.0096: real time    0.0268
    SETDIJ:  cpu time    0.0011: real time    0.0012
     EDDAV:  cpu time    0.0108: real time    0.0108
       DOS:  cpu time    0.0006: real time    0.0006
    CHARGE:  cpu time    0.0012: real time    0.0012
    MIXING:  cpu time    0.0004: real time    0.0004
    --------------------------------------------
      LOOP:  cpu time    0.0238: real time    0.0409

 eigenvalue-minimisations  :   192
 total energy-change (2. order) : 0.6254720E-07  (-0.5546158E-09)
 number of electron       8.0000000 magnetization 
 augmentation part       -0.4515255 magnetization 

 Broyden mixing:
  rms(total) = 0.33235E-04    rms(broyden)= 0.29143E-04
  rms(prec ) = 0.30667E-04
  weight for this iteration     100.00
  WARNING: grid for Broyden might be to small

 eigenvalues of (default mixing * dielectric matrix)
  average eigenvalue GAMMA=   1.9481
  3.2786  2.7166  2.5732  2.3066  1.8747  1.0007  0.9170  0.9170

 Free energy of the ion-electron system (eV)
  ---------------------------------------------------
  alpha Z        PSCENC =         3.29318038
  Ewald energy   TEWEN  =      -226.94490232
  -Hartree energ DENC   =       -15.48664682
  -exchange      EXHF   =         0.00000000
  -V(xc)+E(xc)   XCENC  =       -18.01181617
  PAW double counting   =       994.36959260     -959.40354874
  entropy T*S    EENTRO =        -0.00000000
  eigenvalues    EBANDS =         5.41719771
  atomic energy  EATOM  =       206.12257231
  Solvation  Ediel_sol  =         0.00000000
  ---------------------------------------------------
  free energy    TOTEN  =       -10.64437106 eV

  energy without entropy =      -10.64437106  energy(sigma->0) =      -10.64437106


--------------------------------------------------------------------------------------------------------




--------------------------------------- Iteration      1(  14)  ---------------------------------------


    POTLOK:  cpu time    0.0105: real time    0.0261
    SETDIJ:  cpu time    0.0011: real time    0.0011
     EDDAV:  cpu time    0.0047: real time    0.0047
       DOS:  cpu time    0.0005: real time    0.0005
    --------------------------------------------
      LOOP:  cpu time    0.0169: real time    0.0324

 eigenvalue-minimisations  :    88
 total energy-change (2. order) : 0.9785424E-08  (-0.4252477E-10)
 number of electron       8.0000000 magnetization 
 augmentation part       -0.4515255 magnetization 

 Free energy of the ion-electron system (eV)
  ---------------------------------------------------
  alpha Z        PSCENC =         3.29318038
  Ewald energy   TEWEN  =      -226.94490232
  -Hartree energ DENC   =       -15.48661520
  -exchange      EXHF   =         0.00000000
  -V(xc)+E(xc)   XCENC  =       -18.01181478
  PAW double counting   =       994.43699820     -959.47094995
  entropy T*S    EENTRO =        -0.00000000
  eigenvalues    EBANDS =         5.41716032
  atomic energy  EATOM  =       206.12257231
  Solvation  Ediel_sol  =         0.00000000
  ---------------------------------------------------
  free energy    TOTEN  =       -10.64437105 eV

  energy without entropy =      -10.64437105  energy(sigma->0) =      -10.64437105


--------------------------------------------------------------------------------------------------------




 average (electrostatic) potential at core
  the test charge radii are     0.9892
  (the norm of the test charge is              1.0000)
       1 -83.4175       2 -83.4175



 E-fermi :   5.8943     XC(G=0):  -9.3013     alpha+bet :-11.7317


 k-point     1 :       0.0000    0.0000    0.0000
  band No.  band energies     occupation 
      1      -6.1634      2.00000
      2       5.6714      2.00000
      3       5.6714      2.00000
      4       5.6714      2.00000
      5       8.2125      0.00000
      6       8.2126      0.00000
      7       8.2126      0.00000
      8       8.7971      0.00000

 k-point     2 :       0.2500    0.0000    0.0000
  band No.  band energies     occupation 
      1      -5.3780      2.00000
      2       1.7706      2.00000
      3       4.9183      2.00000
      4       4.9184      2.00000
      5       7.6225      0.00000
      6       9.1513      0.00000
      7       9.1513      0.00000
      8      12.4204      0.00000

 k-point     3 :       0.5000    0.0000    0.0000
  band No.  band energies     occupation 
      1      -3.8821      2.00000
      2      -1.2187      2.00000
      3       4.4815      2.00000
      4       4.4815      2.00000
      5       7.1319      0.00000
      6       9.0127      0.00000
      7       9.0128      0.00000
      8      13.3578      0.00000

 k-point     4 :       0.2500    0.2500    0.0000
  band No.  band energies     occupation 
      1      -5.1002      2.00000
      2       2.1444      2.00000
      3       3.8079      2.00000
      4       3.8079      2.00000
      5       6.8089      0.00000
      6       8.8017      0.00000
      7      11.3625      0.00000
      8      11.3626      0.00000

 k-point     5 :       0.5000    0.2500    0.0000
  band No.  band energies     occupation 
      1      -3.4966      2.00000
      2      -0.6682      2.00000
      3       2.1888      2.00000
      4       3.4948      2.00000
      5       7.2035      0.00000
      6      10.1039      0.00000
      7      11.3183      0.00000
      8      11.5520      0.00000

 k-point     6 :      -0.2500    0.2500    0.0000
  band No.  band energies     occupation 
      1      -4.1576      2.00000
      2       0.2179      2.00000
      3       1.9806      2.00000
      4       4.3564      2.00000
      5       8.0994      0.00000
      6      10.4058      0.00000
      7      10.7709      0.00000
      8      11.7036      0.00000

 k-point     7 :       0.5000    0.5000    0.0000
  band No.  band energies     occupation 
      1      -2.0907      2.00000
      2      -2.0907      2.00000
      3       2.8584      2.00000
      4       2.8584      2.00000
      5       6.4145      0.00000
      6       6.4146      0.00000
      7      15.6053      0.00000
      8      15.6054      0.00000

 k-point     8 :      -0.2500    0.5000    0.2500
  band No.  band energies     occupation 
      1      -1.9352      2.00000
      2      -1.9352      2.00000
      3       1.8877      2.00000
      4       1.8878      2.00000
      5       9.9482      0.00000
      6       9.9483      0.00000
      7      10.5932      0.00000
      8      10.5933      0.00000


--------------------------------------------------------------------------------------------------------


 soft charge-density along one line, spin component           1
         0         1         2         3         4         5         6         7         8         9
 total charge-density along one line

 pseudopotential strength for first ion, spin component:           1
 18.433  25.718   0.000   0.000   0.000   0.000   0.000   0.000
 25.718  35.885   0.000   0.000   0.000   0.000   0.000   0.000
  0.000   0.000   4.181  -0.000  -0.000   7.791  -0.000  -0.000
  0.000   0.000  -0.000   4.181  -0.000  -0.000   7.791  -0.000
  0.000   0.000  -0.000  -0.000   4.181  -0.000  -0.000   7.791
  0.000   0.000   7.791  -0.000  -0.000  14.529  -0.000  -0.000
  0.000   0.000  -0.000   7.791  -0.000  -0.000  14.529  -0.000
  0.000   0.000  -0.000  -0.000   7.791  -0.000  -0.000  14.529
 total augmentation occupancy for first ion, spin component:           1
  5.946  -2.278   0.000   0.000   0.000  -0.000   0.000  -0.000
 -2.278   0.963  -0.000   0.000   0.000   0.000  -0.000  -0.000
 -0.000   0.000   3.334   0.000   0.000  -0.806  -0.000  -0.000
  0.000   0.000   0.000   3.334   0.000  -0.000  -0.806  -0.000
  0.000  -0.000   0.000   0.000   3.334  -0.000  -0.000  -0.806
  0.000   0.000  -0.806  -0.000  -0.000   0.203   0.000   0.000
  0.000  -0.000  -0.000  -0.806  -0.000   0.000   0.203   0.000
  0.000  -0.000  -0.000  -0.000  -0.806   0.000   0.000   0.203


------------------------ aborting loop because EDIFF is reached ----------------------------------------





 total charge     

# of ion       s       p       d       tot
------------------------------------------
    1        0.741   0.958   0.000   1.699
    2        0.741   0.958   0.000   1.699
--------------------------------------------------
tot          1.482   1.916   0.000   3.398

    CHARGE:  cpu time    0.0014: real time    0.0014
    FORLOC:  cpu time    0.0004: real time    0.0004
    FORNL :  cpu time    0.0036: real time    0.0037
    STRESS:  cpu time    0.0089: real time    0.0089
    FORCOR:  cpu time    0.0013: real time    0.0014
    FORHAR:  cpu time    0.0008: real time    0.0012
    MIXING:  cpu time    0.0007: real time    0.0007
    OFIELD:  cpu time    0.0003: real time    0.0006

  FORCE on cell =-STRESS in cart. coord.  units (eV):
  Direction    XX          YY          ZZ          XY          YZ          ZX
  --------------------------------------------------------------------------------------
  Alpha Z     3.29318     3.29318     3.29318
  Ewald     -75.64833   -75.64833   -75.64833    -0.00000    -0.00000    -0.00000
  Hartree     5.16221     5.16221     5.16221    -0.00000     0.00000    -0.00000
  E(xc)     -25.31783   -25.31783   -25.31783     0.00001     0.00000     0.00000
  Local     -29.80995   -29.81001   -29.81003     0.00006     0.00002     0.00004
  n-local    75.45287    77.24709    79.14525     0.46161     1.23480     3.93157
  augment   -11.47372   -11.47366   -11.47364    -0.00005    -0.00002    -0.00004
  Kinetic    54.64647    55.76669    59.42506     2.03162     1.45393     3.63351
  Fock        0.00000     0.00000     0.00000     0.00000     0.00000     0.00000
  -------------------------------------------------------------------------------------
  Total       0.10003     0.10003     0.10003     0.00000     0.00000     0.00000
  in kB       3.91959     3.91959     3.91959     0.00000     0.00000     0.00000
  external pressure =        3.92 kB  Pullay stress =        0.00 kB


 VOLUME and BASIS-vectors are now :
 -----------------------------------------------------------------------------
  energy-cutoff  :      245.34
  volume of cell :       40.89
      direct lattice vectors                 reciprocal lattice vectors
     3.866974650  0.000000000  0.000000000     0.258600092 -0.149302833 -0.105573046
     1.933487330  3.348898280  0.000000000     0.000000000  0.298605666 -0.105573046
     1.933487330  1.116299430  3.157371580     0.000000000  0.000000000  0.316719136

  length of vectors
     3.866974650  3.866974650  3.866974653     0.316719137  0.316719137  0.316719136


 FORCES acting on ions
    electron-ion (+dipol)            ewald-force                    non-local-force                 convergence-correction
 -----------------------------------------------------------------------------------------------
   -.855E-05 -.493E-05 -.348E-05   -.142E-06 -.981E-07 0.286E-07   0.347E-16 0.111E-15 0.957E-17   0.127E-07 0.733E-08 0.518E-08
   0.855E-05 0.493E-05 0.348E-05   0.142E-06 0.981E-07 -.286E-07   -.278E-16 -.937E-16 -.110E-16   -.127E-07 -.733E-08 -.518E-08
 -----------------------------------------------------------------------------------------------
   0.276E-13 0.117E-13 -.938E-16   -.649E-15 -.804E-16 0.598E-16   0.694E-17 0.173E-16 -.140E-17   0.211E-14 0.465E-16 0.534E-14


 POSITION                                       TOTAL-FORCE (eV/Angst)
 -----------------------------------------------------------------------------------
      1.93349      1.11630      0.78934        -0.000000     -0.000000     -0.000000
      0.00000      0.00000      0.00000         0.000000      0.000000      0.000000
 -----------------------------------------------------------------------------------
    total drift:                                0.000000      0.000000      0.000000


--------------------------------------------------------------------------------------------------------



  FREE ENERGIE OF THE ION-ELECTRON SYSTEM (eV)
  ---------------------------------------------------
  free  energy   TOTEN  =       -10.64437105 eV

  energy  without entropy=      -10.64437105  energy(sigma->0) =      -10.64437105



--------------------------------------------------------------------------------------------------------


    POTLOK:  cpu time    0.0023: real time    0.0023


--------------------------------------------------------------------------------------------------------


 writing wavefunctions
     LOOP+:  cpu time    0.3899: real time    0.6890
    4ORBIT:  cpu time    0.0000: real time    0.0000



 total charge     

# of ion       s       p       d       tot
------------------------------------------
    1        0.741   0.958   0.000   1.699
    2        0.741   0.958   0.000   1.699
--------------------------------------------------
tot          1.482   1.916   0.000   3.398


 total amount of memory used by VASP MPI-rank0    30192. kBytes
=======================================================================

   base      :      30000. kBytes
   nonl-proj :         13. kBytes
   fftplans  :        107. kBytes
   grid      :         61. kBytes
   one-center:          3. kBytes
   wavefun   :          8. kBytes

  
  
 General timing and accounting informations for this job:
 ========================================================
  
                  Total CPU time used (sec):        3.086
                            User time (sec):        1.078
                          System time (sec):        2.008
                         Elapsed time (sec):        4.537
  
                   Maximum memory used (kb):       68116.
                   Average memory used (kb):           0.
  
                          Minor page faults:         8896
                          Major page faults:           28
                 Voluntary context switches:         2424
