PROCAR lm decomposed
# of k-points:    8         # of bands:    8         # of ions:    2

 k-point     1 :    0.00000000 0.00000000 0.00000000     weight = 0.01562500

band     1 # energy   -6.16344251 # occ.  2.00000000

ion      s     py     pz     px    dxy    dyz    dz2    dxz  x2-y2    tot
    1  0.213  0.000  0.000  0.000  0.000  0.000  0.000  0.000  0.000  0.213
    2  0.213  0.000  0.000  0.000  0.000  0.000  0.000  0.000  0.000  0.213
tot    0.426  0.000  0.000  0.000  0.000  0.000  0.000  0.000  0.000  0.426

band     2 # energy    5.67138075 # occ.  2.00000000

ion      s     py     pz     px    dxy    dyz    dz2    dxz  x2-y2    tot
    1  0.000  0.048  0.024  0.145  0.000  0.000  0.000  0.000  0.000  0.217
    2  0.000  0.048  0.024  0.145  0.000  0.000  0.000  0.000  0.000  0.217
tot    0.000  0.097  0.048  0.289  0.000  0.000  0.000  0.000  0.000  0.434

band     3 # energy    5.67139627 # occ.  2.00000000

ion      s     py     pz     px    dxy    dyz    dz2    dxz  x2-y2    tot
    1  0.000  0.162  0.000  0.055  0.000  0.000  0.000  0.000  0.000  0.217
    2  0.000  0.162  0.000  0.055  0.000  0.000  0.000  0.000  0.000  0.217
tot    0.000  0.324  0.000  0.110  0.000  0.000  0.000  0.000  0.000  0.434

band     4 # energy    5.67139629 # occ.  2.00000000

ion      s     py     pz     px    dxy    dyz    dz2    dxz  x2-y2    tot
    1  0.000  0.007  0.193  0.017  0.000  0.000  0.000  0.000  0.000  0.217
    2  0.000  0.007  0.193  0.017  0.000  0.000  0.000  0.000  0.000  0.217
tot    0.000  0.013  0.386  0.034  0.000  0.000  0.000  0.000  0.000  0.434

band     5 # energy    8.21254093 # occ.  0.00000000

ion      s     py     pz     px    dxy    dyz    dz2    dxz  x2-y2    tot
    1  0.000  0.034  0.017  0.102  0.000  0.000  0.000  0.000  0.000  0.153
    2  0.000  0.034  0.017  0.102  0.000  0.000  0.000  0.000  0.000  0.153
tot    0.000  0.068  0.034  0.204  0.000  0.000  0.000  0.000  0.000  0.305

band     6 # energy    8.21255727 # occ.  0.00000000

ion      s     py     pz     px    dxy    dyz    dz2    dxz  x2-y2    tot
    1  0.000  0.000  0.132  0.021  0.000  0.000  0.000  0.000  0.000  0.153
    2  0.000  0.000  0.132  0.021  0.000  0.000  0.000  0.000  0.000  0.153
tot    0.000  0.000  0.264  0.041  0.000  0.000  0.000  0.000  0.000  0.305

band     7 # energy    8.21255727 # occ.  0.00000000

ion      s     py     pz     px    dxy    dyz    dz2    dxz  x2-y2    tot
    1  0.000  0.119  0.004  0.030  0.000  0.000  0.000  0.000  0.000  0.153
    2  0.000  0.119  0.004  0.030  0.000  0.000  0.000  0.000  0.000  0.153
tot    0.000  0.237  0.007  0.061  0.000  0.000  0.000  0.000  0.000  0.305

band     8 # energy    8.79705976 # occ.  0.00000000

ion      s     py     pz     px    dxy    dyz    dz2    dxz  x2-y2    tot
    1  0.361  0.000  0.000  0.000  0.000  0.000  0.000  0.000  0.000  0.361
    2  0.361  0.000  0.000  0.000  0.000  0.000  0.000  0.000  0.000  0.361
tot    0.721  0.000  0.000  0.000  0.000  0.000  0.000  0.000  0.000  0.721


 k-point     2 :    0.25000000 0.00000000 0.00000000     weight = 0.12500000

band     1 # energy   -5.37800590 # occ.  2.00000000

ion      s     py     pz     px    dxy    dyz    dz2    dxz  x2-y2    tot
    1  0.210  0.002  0.001  0.005  0.000  0.000  0.000  0.000  0.000  0.218
    2  0.210  0.002  0.001  0.005  0.000  0.000  0.000  0.000  0.000  0.218
tot    0.420  0.004  0.002  0.011  0.000  0.000  0.000  0.000  0.000  0.436

band     2 # energy    1.77063094 # occ.  2.00000000

ion      s     py     pz     px    dxy    dyz    dz2    dxz  x2-y2    tot
    1  0.097  0.026  0.013  0.079  0.000  0.000  0.000  0.000  0.000  0.216
    2  0.097  0.026  0.013  0.079  0.000  0.000  0.000  0.000  0.000  0.216
tot    0.194  0.053  0.026  0.158  0.000  0.000  0.000  0.000  0.000  0.432

band     3 # energy    4.91833801 # occ.  2.00000000

ion      s     py     pz     px    dxy    dyz    dz2    dxz  x2-y2    tot
    1  0.000  0.095  0.047  0.071  0.000  0.000  0.000  0.000  0.000  0.214
    2  0.000  0.095  0.047  0.071  0.000  0.000  0.000  0.000  0.000  0.214
tot    0.000  0.190  0.095  0.143  0.000  0.000  0.000  0.000  0.000  0.428

band     4 # energy    4.91835249 # occ.  2.00000000

ion      s     py     pz     px    dxy    dyz    dz2    dxz  x2-y2    tot
    1  0.000  0.071  0.143  0.000  0.000  0.000  0.000  0.000  0.000  0.214
    2  0.000  0.071  0.143  0.000  0.000  0.000  0.000  0.000  0.000  0.214
tot    0.000  0.142  0.285  0.000  0.000  0.000  0.000  0.000  0.000  0.428

band     5 # energy    7.62254502 # occ.  0.00000000

ion      s     py     pz     px    dxy    dyz    dz2    dxz  x2-y2    tot
    1  0.158  0.011  0.005  0.033  0.000  0.000  0.000  0.000  0.000  0.207
    2  0.158  0.011  0.005  0.033  0.000  0.000  0.000  0.000  0.000  0.207
tot    0.315  0.022  0.011  0.065  0.000  0.000  0.000  0.000  0.000  0.413

band     6 # energy    9.15130895 # occ.  0.00000000

ion      s     py     pz     px    dxy    dyz    dz2    dxz  x2-y2    tot
    1  0.000  0.063  0.031  0.047  0.000  0.000  0.000  0.000  0.000  0.141
    2  0.000  0.063  0.031  0.047  0.000  0.000  0.000  0.000  0.000  0.141
tot    0.000  0.125  0.063  0.094  0.000  0.000  0.000  0.000  0.000  0.281

band     7 # energy    9.15133543 # occ.  0.00000000

ion      s     py     pz     px    dxy    dyz    dz2    dxz  x2-y2    tot
    1  0.000  0.047  0.094  0.000  0.000  0.000  0.000  0.000  0.000  0.141
    2  0.000  0.047  0.094  0.000  0.000  0.000  0.000  0.000  0.000  0.141
tot    0.000  0.094  0.188  0.000  0.000  0.000  0.000  0.000  0.000  0.281

band     8 # energy   12.42035892 # occ.  0.00000000

ion      s     py     pz     px    dxy    dyz    dz2    dxz  x2-y2    tot
    1  0.111  0.034  0.017  0.102  0.000  0.000  0.000  0.000  0.000  0.264
    2  0.111  0.034  0.017  0.102  0.000  0.000  0.000  0.000  0.000  0.264
tot    0.222  0.068  0.034  0.204  0.000  0.000  0.000  0.000  0.000  0.528


 k-point     3 :    0.50000000 0.00000000 0.00000000     weight = 0.06250000

band     1 # energy   -3.88213817 # occ.  2.00000000

ion      s     py     pz     px    dxy    dyz    dz2    dxz  x2-y2    tot
    1  0.224  0.003  0.001  0.009  0.000  0.000  0.000  0.000  0.000  0.237
    2  0.224  0.003  0.001  0.009  0.000  0.000  0.000  0.000  0.000  0.237
tot    0.448  0.006  0.003  0.018  0.000  0.000  0.000  0.000  0.000  0.475

band     2 # energy   -1.21865829 # occ.  2.00000000

ion      s     py     pz     px    dxy    dyz    dz2    dxz  x2-y2    tot
    1  0.100  0.021  0.010  0.062  0.000  0.000  0.000  0.000  0.000  0.193
    2  0.100  0.021  0.010  0.062  0.000  0.000  0.000  0.000  0.000  0.193
tot    0.200  0.041  0.021  0.124  0.000  0.000  0.000  0.000  0.000  0.385

band     3 # energy    4.48150531 # occ.  2.00000000

ion      s     py     pz     px    dxy    dyz    dz2    dxz  x2-y2    tot
    1  0.000  0.097  0.048  0.073  0.000  0.000  0.000  0.000  0.000  0.218
    2  0.000  0.097  0.048  0.073  0.000  0.000  0.000  0.000  0.000  0.218
tot    0.000  0.194  0.097  0.145  0.000  0.000  0.000  0.000  0.000  0.436

band     4 # energy    4.48152055 # occ.  2.00000000

ion      s     py     pz     px    dxy    dyz    dz2    dxz  x2-y2    tot
    1  0.000  0.073  0.146  0.000  0.000  0.000  0.000  0.000  0.000  0.218
    2  0.000  0.073  0.146  0.000  0.000  0.000  0.000  0.000  0.000  0.218
tot    0.000  0.145  0.291  0.000  0.000  0.000  0.000  0.000  0.000  0.436

band     5 # energy    7.13192250 # occ.  0.00000000

ion      s     py     pz     px    dxy    dyz    dz2    dxz  x2-y2    tot
    1  0.187  0.005  0.002  0.014  0.000  0.000  0.000  0.000  0.000  0.208
    2  0.187  0.005  0.002  0.014  0.000  0.000  0.000  0.000  0.000  0.208
tot    0.374  0.009  0.005  0.028  0.000  0.000  0.000  0.000  0.000  0.416

band     6 # energy    9.01273472 # occ.  0.00000000

ion      s     py     pz     px    dxy    dyz    dz2    dxz  x2-y2    tot
    1  0.000  0.043  0.021  0.032  0.000  0.000  0.000  0.000  0.000  0.096
    2  0.000  0.043  0.021  0.032  0.000  0.000  0.000  0.000  0.000  0.096
tot    0.000  0.085  0.043  0.064  0.000  0.000  0.000  0.000  0.000  0.192

band     7 # energy    9.01276802 # occ.  0.00000000

ion      s     py     pz     px    dxy    dyz    dz2    dxz  x2-y2    tot
    1  0.000  0.032  0.064  0.000  0.000  0.000  0.000  0.000  0.000  0.096
    2  0.000  0.032  0.064  0.000  0.000  0.000  0.000  0.000  0.000  0.096
tot    0.000  0.064  0.128  0.000  0.000  0.000  0.000  0.000  0.000  0.192

band     8 # energy   13.35781209 # occ.  0.00000000

ion      s     py     pz     px    dxy    dyz    dz2    dxz  x2-y2    tot
    1  0.006  0.012  0.006  0.037  0.000  0.000  0.000  0.000  0.000  0.060
    2  0.006  0.012  0.006  0.037  0.000  0.000  0.000  0.000  0.000  0.060
tot    0.011  0.024  0.012  0.073  0.000  0.000  0.000  0.000  0.000  0.121


 k-point     4 :    0.25000000 0.25000000 0.00000000     weight = 0.09375000

band     1 # energy   -5.10017316 # occ.  2.00000000

ion      s     py     pz     px    dxy    dyz    dz2    dxz  x2-y2    tot
    1  0.208  0.002  0.004  0.006  0.000  0.000  0.000  0.000  0.000  0.219
    2  0.208  0.002  0.004  0.006  0.000  0.000  0.000  0.000  0.000  0.219
tot    0.415  0.004  0.008  0.012  0.000  0.000  0.000  0.000  0.000  0.438

band     2 # energy    2.14440031 # occ.  2.00000000

ion      s     py     pz     px    dxy    dyz    dz2    dxz  x2-y2    tot
    1  0.157  0.016  0.033  0.049  0.000  0.000  0.000  0.000  0.000  0.255
    2  0.157  0.016  0.033  0.049  0.000  0.000  0.000  0.000  0.000  0.255
tot    0.315  0.033  0.065  0.098  0.000  0.000  0.000  0.000  0.000  0.511

band     3 # energy    3.80789312 # occ.  2.00000000

ion      s     py     pz     px    dxy    dyz    dz2    dxz  x2-y2    tot
    1  0.000  0.017  0.133  0.050  0.000  0.000  0.000  0.000  0.000  0.199
    2  0.000  0.017  0.133  0.050  0.000  0.000  0.000  0.000  0.000  0.199
tot    0.000  0.033  0.265  0.099  0.000  0.000  0.000  0.000  0.000  0.398

band     4 # energy    3.80790204 # occ.  2.00000000

ion      s     py     pz     px    dxy    dyz    dz2    dxz  x2-y2    tot
    1  0.000  0.149  0.000  0.050  0.000  0.000  0.000  0.000  0.000  0.199
    2  0.000  0.149  0.000  0.050  0.000  0.000  0.000  0.000  0.000  0.199
tot    0.000  0.298  0.000  0.099  0.000  0.000  0.000  0.000  0.000  0.398

band     5 # energy    6.80889102 # occ.  0.00000000

ion      s     py     pz     px    dxy    dyz    dz2    dxz  x2-y2    tot
    1  0.043  0.013  0.026  0.039  0.000  0.000  0.000  0.000  0.000  0.121
    2  0.043  0.013  0.026  0.039  0.000  0.000  0.000  0.000  0.000  0.121
tot    0.085  0.026  0.052  0.078  0.000  0.000  0.000  0.000  0.000  0.241

band     6 # energy    8.80166572 # occ.  0.00000000

ion      s     py     pz     px    dxy    dyz    dz2    dxz  x2-y2    tot
    1  0.052  0.007  0.014  0.021  0.000  0.000  0.000  0.000  0.000  0.094
    2  0.052  0.007  0.014  0.021  0.000  0.000  0.000  0.000  0.000  0.094
tot    0.105  0.014  0.028  0.041  0.000  0.000  0.000  0.000  0.000  0.188

band     7 # energy   11.36253993 # occ.  0.00000000

ion      s     py     pz     px    dxy    dyz    dz2    dxz  x2-y2    tot
    1  0.000  0.014  0.113  0.042  0.000  0.000  0.000  0.000  0.000  0.169
    2  0.000  0.014  0.113  0.042  0.000  0.000  0.000  0.000  0.000  0.169
tot    0.000  0.028  0.226  0.085  0.000  0.000  0.000  0.000  0.000  0.338

band     8 # energy   11.36255285 # occ.  0.00000000

ion      s     py     pz     px    dxy    dyz    dz2    dxz  x2-y2    tot
    1  0.000  0.127  0.000  0.042  0.000  0.000  0.000  0.000  0.000  0.169
    2  0.000  0.127  0.000  0.042  0.000  0.000  0.000  0.000  0.000  0.169
tot    0.000  0.254  0.000  0.085  0.000  0.000  0.000  0.000  0.000  0.338


 k-point     5 :    0.50000000 0.25000000 0.00000000     weight = 0.37500000

band     1 # energy   -3.49663962 # occ.  2.00000000

ion      s     py     pz     px    dxy    dyz    dz2    dxz  x2-y2    tot
    1  0.210  0.003  0.007  0.015  0.000  0.000  0.000  0.000  0.000  0.234
    2  0.210  0.003  0.007  0.015  0.000  0.000  0.000  0.000  0.000  0.234
tot    0.420  0.006  0.013  0.030  0.000  0.000  0.000  0.000  0.000  0.469

band     2 # energy   -0.66818633 # occ.  2.00000000

ion      s     py     pz     px    dxy    dyz    dz2    dxz  x2-y2    tot
    1  0.157  0.014  0.012  0.048  0.000  0.000  0.000  0.000  0.000  0.231
    2  0.157  0.014  0.012  0.048  0.000  0.000  0.000  0.000  0.000  0.231
tot    0.315  0.027  0.024  0.096  0.000  0.000  0.000  0.000  0.000  0.462

band     3 # energy    2.18877546 # occ.  2.00000000

ion      s     py     pz     px    dxy    dyz    dz2    dxz  x2-y2    tot
    1  0.024  0.107  0.020  0.026  0.000  0.000  0.000  0.000  0.000  0.178
    2  0.024  0.107  0.020  0.026  0.000  0.000  0.000  0.000  0.000  0.178
tot    0.049  0.213  0.041  0.053  0.000  0.000  0.000  0.000  0.000  0.356

band     4 # energy    3.49484429 # occ.  2.00000000

ion      s     py     pz     px    dxy    dyz    dz2    dxz  x2-y2    tot
    1  0.000  0.017  0.134  0.050  0.000  0.000  0.000  0.000  0.000  0.202
    2  0.000  0.017  0.134  0.050  0.000  0.000  0.000  0.000  0.000  0.202
tot    0.000  0.034  0.269  0.101  0.000  0.000  0.000  0.000  0.000  0.403

band     5 # energy    7.20346710 # occ.  0.00000000

ion      s     py     pz     px    dxy    dyz    dz2    dxz  x2-y2    tot
    1  0.051  0.022  0.016  0.015  0.000  0.000  0.000  0.000  0.000  0.103
    2  0.051  0.022  0.016  0.015  0.000  0.000  0.000  0.000  0.000  0.103
tot    0.102  0.043  0.032  0.030  0.000  0.000  0.000  0.000  0.000  0.207

band     6 # energy   10.10386841 # occ.  0.00000000

ion      s     py     pz     px    dxy    dyz    dz2    dxz  x2-y2    tot
    1  0.022  0.053  0.005  0.025  0.000  0.000  0.000  0.000  0.000  0.105
    2  0.022  0.053  0.005  0.025  0.000  0.000  0.000  0.000  0.000  0.105
tot    0.044  0.106  0.010  0.051  0.000  0.000  0.000  0.000  0.000  0.211

band     7 # energy   11.31833181 # occ.  0.00000000

ion      s     py     pz     px    dxy    dyz    dz2    dxz  x2-y2    tot
    1  0.063  0.108  0.017  0.005  0.000  0.000  0.000  0.000  0.000  0.192
    2  0.063  0.108  0.017  0.005  0.000  0.000  0.000  0.000  0.000  0.192
tot    0.127  0.215  0.034  0.009  0.000  0.000  0.000  0.000  0.000  0.384

band     8 # energy   11.55202906 # occ.  0.00000000

ion      s     py     pz     px    dxy    dyz    dz2    dxz  x2-y2    tot
    1  0.000  0.010  0.079  0.030  0.000  0.000  0.000  0.000  0.000  0.118
    2  0.000  0.010  0.079  0.030  0.000  0.000  0.000  0.000  0.000  0.118
tot    0.000  0.020  0.158  0.059  0.000  0.000  0.000  0.000  0.000  0.236


 k-point     6 :   -0.25000000 0.25000000 0.00000000     weight = 0.18750000

band     1 # energy   -4.15757385 # occ.  2.00000000

ion      s     py     pz     px    dxy    dyz    dz2    dxz  x2-y2    tot
    1  0.209  0.013  0.001  0.005  0.000  0.000  0.000  0.000  0.000  0.228
    2  0.209  0.013  0.001  0.005  0.000  0.000  0.000  0.000  0.000  0.228
tot    0.418  0.026  0.002  0.011  0.000  0.000  0.000  0.000  0.000  0.456

band     2 # energy    0.21791793 # occ.  2.00000000

ion      s     py     pz     px    dxy    dyz    dz2    dxz  x2-y2    tot
    1  0.156  0.039  0.013  0.030  0.000  0.000  0.000  0.000  0.000  0.238
    2  0.156  0.039  0.013  0.030  0.000  0.000  0.000  0.000  0.000  0.238
tot    0.311  0.079  0.026  0.061  0.000  0.000  0.000  0.000  0.000  0.476

band     3 # energy    1.98056009 # occ.  2.00000000

ion      s     py     pz     px    dxy    dyz    dz2    dxz  x2-y2    tot
    1  0.013  0.068  0.027  0.059  0.000  0.000  0.000  0.000  0.000  0.167
    2  0.013  0.068  0.027  0.059  0.000  0.000  0.000  0.000  0.000  0.167
tot    0.026  0.137  0.054  0.118  0.000  0.000  0.000  0.000  0.000  0.334

band     4 # energy    4.35637440 # occ.  2.00000000

ion      s     py     pz     px    dxy    dyz    dz2    dxz  x2-y2    tot
    1  0.000  0.018  0.141  0.053  0.000  0.000  0.000  0.000  0.000  0.211
    2  0.000  0.018  0.141  0.053  0.000  0.000  0.000  0.000  0.000  0.211
tot    0.000  0.035  0.282  0.106  0.000  0.000  0.000  0.000  0.000  0.423

band     5 # energy    8.09936806 # occ.  0.00000000

ion      s     py     pz     px    dxy    dyz    dz2    dxz  x2-y2    tot
    1  0.067  0.012  0.021  0.032  0.000  0.000  0.000  0.000  0.000  0.132
    2  0.067  0.012  0.021  0.032  0.000  0.000  0.000  0.000  0.000  0.132
tot    0.133  0.025  0.042  0.064  0.000  0.000  0.000  0.000  0.000  0.264

band     6 # energy   10.40580027 # occ.  0.00000000

ion      s     py     pz     px    dxy    dyz    dz2    dxz  x2-y2    tot
    1  0.000  0.013  0.100  0.038  0.000  0.000  0.000  0.000  0.000  0.150
    2  0.000  0.013  0.100  0.038  0.000  0.000  0.000  0.000  0.000  0.150
tot    0.000  0.025  0.200  0.075  0.000  0.000  0.000  0.000  0.000  0.301

band     7 # energy   10.77093334 # occ.  0.00000000

ion      s     py     pz     px    dxy    dyz    dz2    dxz  x2-y2    tot
    1  0.031  0.019  0.036  0.054  0.000  0.000  0.000  0.000  0.000  0.139
    2  0.031  0.019  0.036  0.054  0.000  0.000  0.000  0.000  0.000  0.139
tot    0.062  0.038  0.071  0.107  0.000  0.000  0.000  0.000  0.000  0.278

band     8 # energy   11.70361972 # occ.  0.00000000

ion      s     py     pz     px    dxy    dyz    dz2    dxz  x2-y2    tot
    1  0.074  0.077  0.008  0.036  0.000  0.000  0.000  0.000  0.000  0.194
    2  0.074  0.077  0.008  0.036  0.000  0.000  0.000  0.000  0.000  0.194
tot    0.147  0.154  0.015  0.072  0.000  0.000  0.000  0.000  0.000  0.388


 k-point     7 :    0.50000000 0.50000000 0.00000000     weight = 0.04687500

band     1 # energy   -2.09069721 # occ.  2.00000000

ion      s     py     pz     px    dxy    dyz    dz2    dxz  x2-y2    tot
    1  0.194  0.007  0.015  0.022  0.000  0.000  0.000  0.000  0.000  0.238
    2  0.194  0.007  0.015  0.022  0.000  0.000  0.000  0.000  0.000  0.238
tot    0.388  0.015  0.030  0.045  0.000  0.000  0.000  0.000  0.000  0.477

band     2 # energy   -2.09069655 # occ.  2.00000000

ion      s     py     pz     px    dxy    dyz    dz2    dxz  x2-y2    tot
    1  0.194  0.007  0.015  0.022  0.000  0.000  0.000  0.000  0.000  0.238
    2  0.194  0.007  0.015  0.022  0.000  0.000  0.000  0.000  0.000  0.238
tot    0.388  0.015  0.030  0.045  0.000  0.000  0.000  0.000  0.000  0.477

band     3 # energy    2.85841926 # occ.  2.00000000

ion      s     py     pz     px    dxy    dyz    dz2    dxz  x2-y2    tot
    1  0.000  0.016  0.132  0.049  0.000  0.000  0.000  0.000  0.000  0.198
    2  0.000  0.016  0.132  0.049  0.000  0.000  0.000  0.000  0.000  0.198
tot    0.000  0.033  0.264  0.099  0.000  0.000  0.000  0.000  0.000  0.396

band     4 # energy    2.85842753 # occ.  2.00000000

ion      s     py     pz     px    dxy    dyz    dz2    dxz  x2-y2    tot
    1  0.000  0.148  0.000  0.049  0.000  0.000  0.000  0.000  0.000  0.198
    2  0.000  0.148  0.000  0.049  0.000  0.000  0.000  0.000  0.000  0.198
tot    0.000  0.297  0.000  0.099  0.000  0.000  0.000  0.000  0.000  0.396

band     5 # energy    6.41454067 # occ.  0.00000000

ion      s     py     pz     px    dxy    dyz    dz2    dxz  x2-y2    tot
    1  0.052  0.006  0.012  0.018  0.000  0.000  0.000  0.000  0.000  0.089
    2  0.052  0.006  0.012  0.018  0.000  0.000  0.000  0.000  0.000  0.089
tot    0.104  0.012  0.024  0.037  0.000  0.000  0.000  0.000  0.000  0.177

band     6 # energy    6.41455928 # occ.  0.00000000

ion      s     py     pz     px    dxy    dyz    dz2    dxz  x2-y2    tot
    1  0.052  0.006  0.012  0.018  0.000  0.000  0.000  0.000  0.000  0.089
    2  0.052  0.006  0.012  0.018  0.000  0.000  0.000  0.000  0.000  0.089
tot    0.104  0.012  0.024  0.037  0.000  0.000  0.000  0.000  0.000  0.177

band     7 # energy   15.60534831 # occ.  0.00000000

ion      s     py     pz     px    dxy    dyz    dz2    dxz  x2-y2    tot
    1  0.000  0.020  0.163  0.061  0.000  0.000  0.000  0.000  0.000  0.244
    2  0.000  0.020  0.163  0.061  0.000  0.000  0.000  0.000  0.000  0.244
tot    0.000  0.041  0.326  0.122  0.000  0.000  0.000  0.000  0.000  0.489

band     8 # energy   15.60536060 # occ.  0.00000000

ion      s     py     pz     px    dxy    dyz    dz2    dxz  x2-y2    tot
    1  0.000  0.183  0.000  0.061  0.000  0.000  0.000  0.000  0.000  0.244
    2  0.000  0.183  0.000  0.061  0.000  0.000  0.000  0.000  0.000  0.244
tot    0.000  0.367  0.000  0.122  0.000  0.000  0.000  0.000  0.000  0.489


 k-point     8 :   -0.25000000 0.50000000 0.25000000     weight = 0.09375000

band     1 # energy   -1.93524568 # occ.  2.00000000

ion      s     py     pz     px    dxy    dyz    dz2    dxz  x2-y2    tot
    1  0.205  0.017  0.014  0.010  0.000  0.000  0.000  0.000  0.000  0.246
    2  0.205  0.017  0.014  0.010  0.000  0.000  0.000  0.000  0.000  0.246
tot    0.410  0.035  0.028  0.021  0.000  0.000  0.000  0.000  0.000  0.493

band     2 # energy   -1.93524409 # occ.  2.00000000

ion      s     py     pz     px    dxy    dyz    dz2    dxz  x2-y2    tot
    1  0.205  0.017  0.014  0.010  0.000  0.000  0.000  0.000  0.000  0.246
    2  0.205  0.017  0.014  0.010  0.000  0.000  0.000  0.000  0.000  0.246
tot    0.410  0.035  0.028  0.021  0.000  0.000  0.000  0.000  0.000  0.493

band     3 # energy    1.88774672 # occ.  2.00000000

ion      s     py     pz     px    dxy    dyz    dz2    dxz  x2-y2    tot
    1  0.000  0.010  0.054  0.098  0.000  0.000  0.000  0.000  0.000  0.161
    2  0.000  0.010  0.054  0.098  0.000  0.000  0.000  0.000  0.000  0.161
tot    0.000  0.020  0.107  0.196  0.000  0.000  0.000  0.000  0.000  0.323

band     4 # energy    1.88775485 # occ.  2.00000000

ion      s     py     pz     px    dxy    dyz    dz2    dxz  x2-y2    tot
    1  0.000  0.090  0.054  0.018  0.000  0.000  0.000  0.000  0.000  0.161
    2  0.000  0.090  0.054  0.018  0.000  0.000  0.000  0.000  0.000  0.161
tot    0.000  0.180  0.108  0.035  0.000  0.000  0.000  0.000  0.000  0.323

band     5 # energy    9.94821740 # occ.  0.00000000

ion      s     py     pz     px    dxy    dyz    dz2    dxz  x2-y2    tot
    1  0.000  0.016  0.029  0.042  0.000  0.000  0.000  0.000  0.000  0.087
    2  0.000  0.016  0.029  0.042  0.000  0.000  0.000  0.000  0.000  0.087
tot    0.000  0.031  0.058  0.085  0.000  0.000  0.000  0.000  0.000  0.174

band     6 # energy    9.94825465 # occ.  0.00000000

ion      s     py     pz     px    dxy    dyz    dz2    dxz  x2-y2    tot
    1  0.000  0.013  0.029  0.045  0.000  0.000  0.000  0.000  0.000  0.087
    2  0.000  0.013  0.029  0.045  0.000  0.000  0.000  0.000  0.000  0.087
tot    0.000  0.027  0.058  0.089  0.000  0.000  0.000  0.000  0.000  0.174

band     7 # energy   10.59323506 # occ.  0.00000000

ion      s     py     pz     px    dxy    dyz    dz2    dxz  x2-y2    tot
    1  0.062  0.044  0.036  0.027  0.000  0.000  0.000  0.000  0.000  0.168
    2  0.062  0.044  0.036  0.027  0.000  0.000  0.000  0.000  0.000  0.168
tot    0.124  0.089  0.071  0.053  0.000  0.000  0.000  0.000  0.000  0.337

band     8 # energy   10.59325230 # occ.  0.00000000

ion      s     py     pz     px    dxy    dyz    dz2    dxz  x2-y2    tot
    1  0.062  0.044  0.036  0.027  0.000  0.000  0.000  0.000  0.000  0.168
    2  0.062  0.044  0.036  0.027  0.000  0.000  0.000  0.000  0.000  0.168
tot    0.124  0.089  0.071  0.053  0.000  0.000  0.000  0.000  0.000  0.337

